7
Lattice="16.0 0.0 0.0 0.0 16.0 0.0 0.0 0.0 16.0" Properties=species:S:1:pos:R:3:forces:R:3 unique_id=cc1a5b20055e562cba798c37c0fcf8c9 key_value_pairs="_JSON {\"extinct\": 0, \"origin\": \"CutAndSplicePairing\", \"raw_score\": 5.873442081557529, \"generation\": 0, \"relaxed\": 1, \"gaid\": 111}" data="_JSON {\"parents\": [67, 103]}" confid=111 relax_id=112 energy=-5.873442081557529 dipole="0.0011704921630343163 3.741066901534203e-05 0.0009229606552363891" pbc="F F F"
Na       8.17736718      10.39054017       7.17528621      -0.00030262       0.00558236       0.00771747
Na       5.74954014       7.94225414       7.31613045       0.00175842      -0.00178921      -0.00301032
Na       6.73363923       9.65371317      10.16001046      -0.00020910      -0.00171279      -0.00419400
Na       9.21211717       7.59523328       8.92648905      -0.00165556      -0.00423459       0.00559227
Na       6.29426059       6.29158955      10.29268966       0.00446491       0.00424920       0.00114008
Na       7.52785936       4.96671489       7.43542734      -0.00375610      -0.00239740       0.00343098
Na       8.68166449       7.49122638       5.52207064       0.00117458       0.00113684      -0.00911616
