73
Lattice="8.956369831609006 0.0 0.0 0.0 8.956369831609006 0.0 0.0 0.0 8.956369831609006" Properties=species:S:1:pos:R:3:momenta:R:3:forces:R:3 water=T with=T unit=T cell:=T ABC=T angstrom=T 12.42=T energy=-336.24046216462136 dipole="2.897225421834448 -14.574787507366118 8.84491709821732" pbc="T T T"
O        4.46925214       3.58346182      -0.68248143      -0.31029571      -0.29519412       0.82880436      -2.64085461       1.55718676       1.62118031
O        3.77057663      -1.39297017       1.93380506      -0.54906801      -0.17028742       0.67283902      -1.49750953      -2.06705130      -0.43744292
O       -0.22308261       3.38283405       0.13915955       0.65610076       0.18637210      -0.90357049      -1.24137634       0.26865607      -0.46741450
O        5.42911292       0.57205005       2.42647845       0.17481822      -1.26575930       0.10341663      -0.39679519       0.62183056      -0.64597659
O        8.16516449       0.15358611       2.03659519      -0.26409441       0.44115583      -0.17146231       0.04176140      -0.03386885      -1.47688003
O        4.24798669       3.33137710       3.32625222      -0.23045724       0.43318146       1.98132373       0.01529502       0.79515706      -0.94990191
O        2.42945509      -2.25569263       4.41887434      -0.32791107      -0.39576323      -0.70142455       0.19051673       0.31942488       0.04371675
O        6.48012792       4.76652242       0.52148962      -1.04599191      -0.00102602      -0.54244610       0.14848773      -1.17155331      -2.83905635
O        6.30355945      -1.80305039      -1.37916481       0.52541588       0.24853977      -1.27629662      -0.18960961      -1.07803374       0.58466383
O        2.67942527       4.16251918       5.42182523       1.43368256      -0.57743544      -0.41706218       1.15420833       1.39346923      -0.04572544
O        2.06582626      -1.61848007      -0.38414645      -0.03203364      -0.95483452      -0.81068579      -0.17715490       2.14946055       1.09830014
O        0.45112278       0.71281167       6.08433788      -0.11394798      -0.23892231       0.45003673       1.72361019       0.09861037      -0.33604205
O        4.54503079       0.14869525       7.97916054      -1.18599060       1.69828979      -0.26133873      -1.68298269       0.39739260       0.33186972
O        0.38286775       3.09923874       4.72491059       0.26092628      -0.26124314      -0.07467539       1.12019862      -0.77293736       0.93579322
O        3.14984232       1.96575615       9.74156180      -0.18551304      -0.64434006       0.14486051      -0.72483398       0.19287603       0.55350533
O        5.58317727       5.94597980       2.77334186       2.08114149       0.79114423      -0.12691954      -0.29564214      -1.28405296       0.22846795
O        8.43997640      -0.57443219       8.39466107       0.78322198       0.16601895      -0.23308410       0.28436426       0.92286114      -1.25142021
O        5.39393063       2.44162552       6.24947214      -0.45769268       0.82657488       0.42808575       1.14238343      -0.52879020      -0.66591313
O        3.05942608       0.02835906       5.76173478       1.09233039      -0.45619971       0.06043876      -0.06488390      -0.54835899       0.38757055
O        9.02499425      -1.12163041       4.20241284       0.50941124       0.27991698       0.31982084      -0.18636612      -0.68966673      -0.55406289
O        7.37774886       4.17194673       6.04358457      -0.16353035       0.19335362      -0.28248132       0.83449668       1.62401375       0.78560266
O        2.05150413       4.61827988      -1.05848590      -1.53926459       0.49000921      -0.49348448      -0.10189396       1.03967755       2.70553948
O        9.92238509       2.25105829       2.08542342       0.05129941       0.41687924      -0.80112116       0.65340385      -0.74636919       0.99895300
O        6.86583860      -2.44663721       5.00669607      -0.02077044      -1.45922754       1.17702565       0.33103116       0.02858493      -0.69899827
H        3.63781088       4.28677854      -0.74805514      -0.32246432       0.03372077       0.32180459       1.38991009      -1.12595202      -0.46489666
H        3.81379373       2.95687974      -0.05698797      -0.11358898      -0.21373062      -0.32303672       1.31722928      -0.24640393      -0.71243949
H        4.26356249      -0.55974295       1.93045362       0.25044847      -0.18264350      -0.03987914       1.19486678       1.34176100       0.04843237
H        3.32310669      -1.52850165       1.03869667       0.28295285      -0.31912815      -0.16778695      -0.10332998       0.29067220       0.34153245
H       -0.51185634       2.55201527      -0.32885070       0.09247477      -0.00508125      -0.12914544       0.22462429       0.20238464       0.09208853
H        7.79343451       3.87742574       0.31063242       0.04835579       0.09562290       0.10410045       0.69978274       0.05655204       0.04997262
H        5.17444668       1.18796702       1.66909583       0.00894862      -0.10495302       0.11263692       0.09689810      -0.28421888       0.65204499
H        6.38215893       0.32451134       2.23263801      -0.14427975       0.15814478      -0.17720611       0.57867409      -0.04254419       0.04076906
H        8.20757507      -0.15491327       1.02685126      -0.11436677       0.16620095       0.00260453       0.04759883       0.35887140       1.46217846
H        8.60612625      -0.52067726       2.66329627      -0.01824107      -0.01455835       0.08690653      -0.34042546       0.04610807       0.01882492
H        3.77660385       3.57353266       2.48773398      -0.27422221      -0.20232160       0.06232107       0.23727561      -0.58555346      -0.12246853
H        3.67451877       3.81675052       3.97452517       0.01633399       0.06982535      -0.03153184      -0.37950450       0.10025470       1.23796843
H        3.06512621      -2.08693453       3.66177113       0.02677751       0.18143790       0.08064710      -0.42848457       0.10398395      -0.14590678
H        1.49173275      -1.92314553       4.12185495      -0.05775540      -0.07630438      -0.27437624       0.19290872      -0.01301147       0.26047637
H        6.30036305       5.19162029       1.36934961      -0.15359747       0.03030307      -0.02935351      -0.57681488       0.64248645       1.59384856
H        5.60712489       4.29255217       0.09883470       0.36530563      -0.16594270      -0.00949647       0.63343291       0.32377978       0.59882656
H        7.17934801      -1.36578367      -1.09445642       0.14416322       0.06959644      -0.24866165       0.12553812       0.05409568       0.15541182
H        6.29150701      -2.62721832      -0.75058829      -0.13593075       0.04986682      -0.00334525      -0.09752298       0.73464807      -0.65227372
H        2.56785936       5.16654658       5.19713875      -0.18389848      -0.08550616       0.10772505      -0.06284087      -0.80173296      -0.31805156
H        1.90513489       3.71093605       5.00331210       0.09578731      -0.30176512       0.23540741      -1.16304436      -0.03566036       0.05898638
H        2.43811890      -0.92082409      -0.99964265       0.34830587      -0.12780553      -0.02856379      -0.05781981      -1.02887671       0.09993173
H        2.16876233       6.42662878      -0.70229641      -0.02404415      -0.11706103      -0.29718714       0.12651037      -1.41278822      -1.03330889
H        1.50376320       0.40874027       6.04367783      -0.19763126      -0.37928077      -0.00982081      -1.40352912       0.82352994       0.17760839
H        0.46418018       1.64578400       5.60027533       0.01237880      -0.15766665      -0.19290278      -0.19569274      -0.74084698       0.44710008
H        4.93752228       0.97061412       7.60797298      -0.17636454       0.12013502      -0.24062634       0.48446382       0.55613689      -0.43849440
H        5.19889399      -0.57507067       7.85206465      -0.04568241      -0.25494897      -0.07127320       1.12210229      -1.10137691      -0.04428766
H       -0.47803148       3.52172536       5.01037544       0.29219763      -0.06131635       0.10453130      -0.39723681       0.43969425      -0.03933422
H        9.52393520       2.94791602       3.77612781       0.12074778       0.01030906      -0.09838307      -0.59676038      -0.30114472      -1.17543198
H        2.23337413       2.21223236      10.26888277      -0.08647695       0.01019932       0.15288319       0.59115381      -0.83717972      -0.15805968
H        2.98193510       1.08092716       9.32382312       0.15705350      -0.21521059      -0.08256921       0.21279401       0.34964407      -0.07190162
H        5.08395594       5.09233860       3.04259889       0.12347884       0.13520412       0.26526518       0.71694535       0.44883387      -0.02520360
H        4.86842469      -2.51562858       2.24113235      -0.11000727      -0.05792957       0.00795020      -0.09507592       0.77027781       0.16003102
H        0.30425161      -1.07746726       8.70069966       0.04845928      -0.11350789      -0.17726732       0.22347155       0.01516325      -0.78837582
H        8.69550351      -0.06627490       7.47430979       0.06742359      -0.11902662       0.02481361       0.14178993      -0.55387218       1.58149275
H        4.94830352       3.00951580       6.92332141      -0.05112103      -0.09935911       0.03788195      -1.11543045       0.32424858       0.93054396
H        6.19995115       3.04121740       6.14023445      -0.06949296       0.09817897       0.10412221       0.21335461      -0.30376145      -0.03612010
H        3.60632715      -0.16134088       6.66009286       0.15675898       0.20479885       0.12700768      -0.41828494       0.34204957      -1.16627442
H        2.78170974      -0.83789255       5.25831744      -0.10041115       0.07609205      -0.04456523       0.66460468       0.08216877       0.61272482
H        8.22319041      -1.59189052       4.65434923      -0.21916874      -0.09623937      -0.32312490       0.33251062      -0.05602281      -0.48498597
H        0.21806489      -0.31544288       4.78260745       0.02433368      -0.07570445       0.10126167      -0.00981025       0.42032223       0.49453773
H        7.90095343       4.60192644       6.81792707      -0.08167358      -0.27592876       0.14669845      -0.64294937      -1.02159727      -0.90170143
H        7.06376074       5.06749999       5.58981577      -0.04526378       0.09578152       0.24594376       0.06427333      -0.38557540      -0.01323674
H        2.14091209       4.40974458       6.95291543       0.00049147       0.31099498       0.23366232       0.08391858      -0.93729134      -1.83050837
H        1.40843453       4.01065418      -0.56671716      -0.19527140       0.04268057       0.12867672       0.02629491       0.44477622      -0.68807108
H        9.40518231       1.35271898       2.02345032       0.10007045      -0.18573003      -0.30415930      -0.12983733       0.53438577       0.17437647
H        9.42682735       2.83721454       1.45108183      -0.08109873       0.03739126      -0.07024919      -0.81713346       0.38397357      -0.69668910
H        6.42096298      -1.93680578       5.74170925      -0.12931821       0.16396200       0.16052101      -0.30000522      -0.28984618       0.15069231
H        6.36234518      -2.46807968       4.09918633       0.26153739       0.10653488       0.11839882      -0.25675257      -0.02743557       0.64380117
Na       4.73725559       1.44223303       4.50246176      -1.71337721      -1.03733833       0.09811578      -0.40014392      -0.41151954      -0.42334949
