8
Lattice="16.0 0.0 0.0 0.0 16.0 0.0 0.0 0.0 16.0" Properties=species:S:1:pos:R:3:forces:R:3 unique_id=c637bb0a9b2477daecdf85dab6a60476 key_value_pairs="_JSON {\"origin\": \"StartingCandidateUnrelaxed\", \"relaxed\": 1, \"generation\": 0, \"extinct\": 0, \"gaid\": 19, \"raw_score\": 7.280806767431166}" confid=19 relax_id=39 energy=-7.280806767431166 dipole="0.001940978441754801 -0.0014855251328710517 -0.016224395586297558" pbc="F F F"
Na       6.93153987       6.22942442       6.46499545       0.00129911      -0.00214758      -0.00910259
Na       5.56247296       9.39070561       7.41581310      -0.00472745       0.00139664       0.00953038
Na       6.80302316       9.00809560       4.42847682       0.00230712      -0.00150731       0.00658052
Na       7.92222976      10.07068082       9.83904282      -0.00034520      -0.00437265      -0.00582767
Na       8.91427749      10.42794239       6.75842825       0.00319811       0.00206119      -0.00936099
Na       9.62451624       7.38914116       8.50162553       0.00013036      -0.00090589       0.00965934
Na       9.90702718       7.48728695       5.25898480      -0.00525572       0.00219081       0.00294464
Na       6.40194699       6.86936776       9.61308646       0.00368329       0.00324627      -0.00461984
