6
Lattice="16.0 0.0 0.0 0.0 16.0 0.0 0.0 0.0 16.0" Properties=species:S:1:pos:R:3:forces:R:3 unique_id=f4ec94197e99ab19927ad96bcf7926e9 key_value_pairs="_JSON {\"extinct\": 0, \"origin\": \"CutAndSplicePairing\", \"raw_score\": 4.933412583930612, \"generation\": 0, \"relaxed\": 1, \"gaid\": 42}" data="_JSON {\"parents\": [5, 3]}" confid=42 relax_id=43 energy=-4.933412583930612 dipole="0.0017224120329849908 -0.004209824323337474 0.001287879721921365" pbc="F F F"
Na       7.75883577       8.75194760       7.23359953      -0.00078852       0.00247742       0.00906049
Na      10.52924730       6.87321635       8.37521999      -0.00275558       0.00681079      -0.00546814
Na      10.20957794       7.82844853       5.22341906      -0.00337993      -0.00461804       0.00860040
Na      10.67842533       6.14877345      11.58452938      -0.00331885       0.00092093      -0.00051434
Na       5.48857503       9.64745767       9.47121557       0.01138802      -0.00773139      -0.00239752
Na       8.02064240       7.88359349      10.66474701      -0.00092276       0.00218358      -0.00751565
