
  ___ ___ ___ _ _ _  
 |   |   |_  | | | | 
 | | | | | . | | | | 
 |__ |  _|___|_____|  19.8.1
 |___|_|             

User:   ermag@vera11-4
Date:   Fri Feb 25 21:45:48 2022
Arch:   x86_64
Pid:    81453
Python: 3.7.2
gpaw:   /apps/Vera/software/GPAW/19.8.1-intel-2019a-Python-3.7.2/lib/python3.7/site-packages/gpaw
_gpaw:  /apps/Vera/software/GPAW/19.8.1-intel-2019a-Python-3.7.2/bin/
        gpaw-python
ase:    /apps/Vera/software/ASE/3.18.0-intel-2019a-Python-3.7.2/lib/python3.7/site-packages/ase (version 3.18.0)
numpy:  /apps/Vera/software/SciPy-bundle/2019.03-intel-2019a/lib/python3.7/site-packages/numpy (version 1.16.2)
scipy:  /apps/Vera/software/SciPy-bundle/2019.03-intel-2019a/lib/python3.7/site-packages/scipy (version 1.2.1)
libxc:  4.3.4
units:  Angstrom and eV
cores:  16

Input parameters:
  h: 0.2
  kpts: [12 12 12]
  mode: {ecut: 450.00000000000006,
         gammacentered: False,
         name: pw}
  xc: PBE

System changes: positions, numbers, cell, pbc, initial_charges, initial_magmoms 

Initialize ...

Au-setup:
  name: Gold
  id: b12133f335f6ca0d89c4b1ccaa844e9a
  Z: 79
  valence: 11
  core: 68
  charge: 0.0
  file: /apps/Common/software/GPAW-setups/0.9.20000/Au.PBE.gz
  compensation charges: gauss, rc=0.42, lmax=2
  cutoffs: 2.33(filt), 2.81(core),
  valence states:
                energy  radius
    6s(1.00)    -5.728   1.323
    6p(0.00)    -0.775   1.323
    5d(10.00)    -6.891   1.323
    *s          21.484   1.323
    *p          26.436   1.323
    *d          20.321   1.323

  Using partial waves for Au as LCAO basis

Reference energy: -516598.271109

Spin-paired calculation

Occupation numbers:
  Fermi-Dirac: width=0.1000 eV

Convergence criteria:
  Maximum total energy change: 0.0005 eV / electron
  Maximum integral of absolute density change: 0.0001 electrons
  Maximum integral of absolute eigenstate change: 4e-08 eV^2
  Maximum number of iterations: 333

Symmetries present (total): 48

  ( 1  0  0)  ( 1  0  0)  ( 1  0  0)  ( 1  0  0)  ( 1  0 -1)  ( 1  0 -1)
  ( 1  0 -1)  ( 1 -1  0)  ( 0  1  0)  ( 0  0  1)  ( 1  0  0)  ( 1 -1  0)
  ( 1 -1  0)  ( 1  0 -1)  ( 0  0  1)  ( 0  1  0)  ( 1 -1  0)  ( 1  0  0)

  ( 1  0 -1)  ( 1  0 -1)  ( 1 -1  0)  ( 1 -1  0)  ( 1 -1  0)  ( 1 -1  0)
  ( 0  1 -1)  ( 0  0 -1)  ( 1  0  0)  ( 1  0 -1)  ( 0 -1  1)  ( 0 -1  0)
  ( 0  0 -1)  ( 0  1 -1)  ( 1  0 -1)  ( 1  0  0)  ( 0 -1  0)  ( 0 -1  1)

  ( 0  1  0)  ( 0  1  0)  ( 0  1  0)  ( 0  1  0)  ( 0  1 -1)  ( 0  1 -1)
  ( 1  0  0)  ( 0  1 -1)  ( 0  0  1)  (-1  1  0)  ( 1  0 -1)  ( 0  1  0)
  ( 0  0  1)  (-1  1  0)  ( 1  0  0)  ( 0  1 -1)  ( 0  0 -1)  (-1  1  0)

  ( 0  1 -1)  ( 0  1 -1)  ( 0  0  1)  ( 0  0  1)  ( 0  0  1)  ( 0  0  1)
  ( 0  0 -1)  (-1  1  0)  ( 1  0  0)  ( 0  1  0)  ( 0 -1  1)  (-1  0  1)
  ( 1  0 -1)  ( 0  1  0)  ( 0  1  0)  ( 1  0  0)  (-1  0  1)  ( 0 -1  1)

  ( 0  0 -1)  ( 0  0 -1)  ( 0  0 -1)  ( 0  0 -1)  ( 0 -1  1)  ( 0 -1  1)
  ( 1  0 -1)  ( 0  1 -1)  ( 0 -1  0)  (-1  0  0)  ( 1 -1  0)  ( 0  0  1)
  ( 0  1 -1)  ( 1  0 -1)  (-1  0  0)  ( 0 -1  0)  ( 0 -1  0)  (-1  0  1)

  ( 0 -1  1)  ( 0 -1  1)  ( 0 -1  0)  ( 0 -1  0)  ( 0 -1  0)  ( 0 -1  0)
  ( 0 -1  0)  (-1  0  1)  ( 1 -1  0)  ( 0  0 -1)  ( 0 -1  1)  (-1  0  0)
  ( 1 -1  0)  ( 0  0  1)  ( 0 -1  1)  (-1  0  0)  ( 1 -1  0)  ( 0  0 -1)

  (-1  1  0)  (-1  1  0)  (-1  1  0)  (-1  1  0)  (-1  0  1)  (-1  0  1)
  ( 0  1  0)  ( 0  1 -1)  (-1  0  1)  (-1  0  0)  ( 0  0  1)  ( 0 -1  1)
  ( 0  1 -1)  ( 0  1  0)  (-1  0  0)  (-1  0  1)  ( 0 -1  1)  ( 0  0  1)

  (-1  0  1)  (-1  0  1)  (-1  0  0)  (-1  0  0)  (-1  0  0)  (-1  0  0)
  (-1  1  0)  (-1  0  0)  ( 0  0 -1)  ( 0 -1  0)  (-1  1  0)  (-1  0  1)
  (-1  0  0)  (-1  1  0)  ( 0 -1  0)  ( 0  0 -1)  (-1  0  1)  (-1  1  0)
Note: your k-points are not as symmetric as your crystal!

1728 k-points: 12 x 12 x 12 Monkhorst-Pack grid
182 k-points in the irreducible part of the Brillouin zone
       k-points in crystal coordinates                weights
   0:     0.04166667    0.04166667   -0.04166667          6/1728
   1:     0.04166667    0.04166667    0.04166667          2/1728
   2:     0.12500000   -0.04166667   -0.04166667          6/1728
   3:     0.12500000    0.04166667   -0.12500000         12/1728
   4:     0.12500000    0.04166667   -0.04166667         12/1728
   5:     0.12500000    0.04166667    0.04166667          6/1728
   6:     0.12500000    0.12500000   -0.12500000          6/1728
   7:     0.12500000    0.12500000   -0.04166667          6/1728
   8:     0.12500000    0.12500000    0.04166667          6/1728
   9:     0.12500000    0.12500000    0.12500000          2/1728
          ...
 181:     0.45833333    0.45833333    0.45833333          2/1728

Wave functions: Plane wave expansion
  Cutoff energy: 450.000 eV
  Number of coefficients (min, max): 323, 338
  Pulay-stress correction: 0.000000 eV/Ang^3 (de/decut=0.000000)
  Using FFTW library
  ScaLapack parameters: grid=1x1, blocksize=None
  Wavefunction extrapolation:
    Improved wavefunction reuse through dual PAW basis 

Eigensolver
   Davidson(niter=2, smin=None, normalize=True) 

Densities:
  Coarse grid: 14*14*14 grid
  Fine grid: 28*28*28 grid
  Total Charge: 0.000000 

Density mixing:
  Method: separate
  Backend: pulay
  Linear mixing parameter: 0.05
  Mixing with 5 old densities
  Damping of long wave oscillations: 50 

Hamiltonian:
  XC and Coulomb potentials evaluated on a 28*28*28 grid
  Using the PBE Exchange-Correlation functional
 

XC parameters: PBE with 2 nearest neighbor stencil

Memory estimate:
  Process memory now: 94.66 MiB
  Calculator: 2.69 MiB
    Density: 1.13 MiB
      Arrays: 0.54 MiB
      Localized functions: 0.37 MiB
      Mixer: 0.21 MiB
    Hamiltonian: 0.36 MiB
      Arrays: 0.36 MiB
      XC: 0.00 MiB
      Poisson: 0.00 MiB
      vbar: 0.01 MiB
    Wavefunctions: 1.20 MiB
      Arrays psit_nG: 0.51 MiB
      Eigensolver: 0.08 MiB
      Projections: 0.03 MiB
      Projectors: 0.41 MiB
      PW-descriptor: 0.16 MiB

Total number of cores used: 16
Parallelization over k-points: 16

Number of atoms: 1
Number of atomic orbitals: 9
Number of bands in calculation: 9
Bands to converge: occupied states only
Number of valence electrons: 11

... initialized

Initializing position-dependent things.

Density initialized from atomic densities
Creating initial wave functions:
  9 bands from LCAO basis set

                
                
                
       Au       
                
                
                
                

Positions:
   0 Au     0.000000    0.000000    0.000000    ( 0.0000,  0.0000,  0.0000)

Unit cell:
           periodic     x           y           z      points  spacing
  1. axis:    yes    0.000000    1.971250    1.971250    14     0.1626
  2. axis:    yes    1.971250    0.000000    1.971250    14     0.1626
  3. axis:    yes    1.971250    1.971250    0.000000    14     0.1626

  Lengths:   2.787768   2.787768   2.787768
  Angles:   60.000000  60.000000  60.000000

Effective grid spacing dv^(1/3) = 0.1774

                     log10-error:    total        iterations:
           time      wfs    density  energy       fermi  poisson
iter:   1  21:45:52  +1.64   +inf    -3.123086    2             
iter:   2  21:45:52  -1.78  -1.35    -3.079961    3             
iter:   3  21:45:53  -1.54  -1.37    -2.883922    29            
iter:   4  21:45:53  -2.82  -1.91    -2.852811    3             
iter:   5  21:45:53  -2.65  -2.06    -2.852419    3             
iter:   6  21:45:54  -3.65  -2.30    -2.847499    3             
iter:   7  21:45:54  -4.37  -2.85    -2.847240    3             
iter:   8  21:45:54  -5.40  -3.05    -2.847280    2             
iter:   9  21:45:55  -5.77  -3.57    -2.847261    2             
iter:  10  21:45:55  -7.28  -4.43    -2.847260    2             
iter:  11  21:45:55  -7.16  -4.28    -2.847262    2             
iter:  12  21:45:56  -9.10  -4.40    -2.847261    2             

Converged after 12 iterations.

Dipole moment: (-0.000000, -0.000000, -0.000000) |e|*Ang

Energy contributions relative to reference atoms: (reference = -516598.271109)

Kinetic:         +7.790218
Potential:       -7.109307
External:        +0.000000
XC:              -3.684436
Entropy (-ST):   -0.008710
Local:           +0.160618
--------------------------
Free energy:     -2.851616
Extrapolated:    -2.847261

Fermi level: 11.98774

Showing only first 2 kpts
 Kpt  Band  Eigenvalues  Occupancy
  0     3      6.69823    0.00694
  0     4      8.28873    0.00694
  0     5      8.44258    0.00694
  0     6     28.02911    0.00000

  1     3      6.61480    0.00231
  1     4      8.39633    0.00231
  1     5      8.39633    0.00231
  1     6     27.87006    0.00000


No gap
System changes: cell 

Initialize ...

Au-setup:
  name: Gold
  id: b12133f335f6ca0d89c4b1ccaa844e9a
  Z: 79
  valence: 11
  core: 68
  charge: 0.0
  file: /apps/Common/software/GPAW-setups/0.9.20000/Au.PBE.gz
  compensation charges: gauss, rc=0.42, lmax=2
  cutoffs: 2.33(filt), 2.81(core),
  valence states:
                energy  radius
    6s(1.00)    -5.728   1.323
    6p(0.00)    -0.775   1.323
    5d(10.00)    -6.891   1.323
    *s          21.484   1.323
    *p          26.436   1.323
    *d          20.321   1.323

  Using partial waves for Au as LCAO basis

Reference energy: -516598.271109

Spin-paired calculation

Occupation numbers:
  Fermi-Dirac: width=0.1000 eV

Convergence criteria:
  Maximum total energy change: 0.0005 eV / electron
  Maximum integral of absolute density change: 0.0001 electrons
  Maximum integral of absolute eigenstate change: 4e-08 eV^2
  Maximum number of iterations: 333

Symmetries present (total): 48

  ( 1  0  0)  ( 1  0  0)  ( 1  0  0)  ( 1  0  0)  ( 1  0 -1)  ( 1  0 -1)
  ( 1  0 -1)  ( 1 -1  0)  ( 0  1  0)  ( 0  0  1)  ( 1  0  0)  ( 1 -1  0)
  ( 1 -1  0)  ( 1  0 -1)  ( 0  0  1)  ( 0  1  0)  ( 1 -1  0)  ( 1  0  0)

  ( 1  0 -1)  ( 1  0 -1)  ( 1 -1  0)  ( 1 -1  0)  ( 1 -1  0)  ( 1 -1  0)
  ( 0  1 -1)  ( 0  0 -1)  ( 1  0  0)  ( 1  0 -1)  ( 0 -1  1)  ( 0 -1  0)
  ( 0  0 -1)  ( 0  1 -1)  ( 1  0 -1)  ( 1  0  0)  ( 0 -1  0)  ( 0 -1  1)

  ( 0  1  0)  ( 0  1  0)  ( 0  1  0)  ( 0  1  0)  ( 0  1 -1)  ( 0  1 -1)
  ( 1  0  0)  ( 0  1 -1)  ( 0  0  1)  (-1  1  0)  ( 1  0 -1)  ( 0  1  0)
  ( 0  0  1)  (-1  1  0)  ( 1  0  0)  ( 0  1 -1)  ( 0  0 -1)  (-1  1  0)

  ( 0  1 -1)  ( 0  1 -1)  ( 0  0  1)  ( 0  0  1)  ( 0  0  1)  ( 0  0  1)
  ( 0  0 -1)  (-1  1  0)  ( 1  0  0)  ( 0  1  0)  ( 0 -1  1)  (-1  0  1)
  ( 1  0 -1)  ( 0  1  0)  ( 0  1  0)  ( 1  0  0)  (-1  0  1)  ( 0 -1  1)

  ( 0  0 -1)  ( 0  0 -1)  ( 0  0 -1)  ( 0  0 -1)  ( 0 -1  1)  ( 0 -1  1)
  ( 1  0 -1)  ( 0  1 -1)  ( 0 -1  0)  (-1  0  0)  ( 1 -1  0)  ( 0  0  1)
  ( 0  1 -1)  ( 1  0 -1)  (-1  0  0)  ( 0 -1  0)  ( 0 -1  0)  (-1  0  1)

  ( 0 -1  1)  ( 0 -1  1)  ( 0 -1  0)  ( 0 -1  0)  ( 0 -1  0)  ( 0 -1  0)
  ( 0 -1  0)  (-1  0  1)  ( 1 -1  0)  ( 0  0 -1)  ( 0 -1  1)  (-1  0  0)
  ( 1 -1  0)  ( 0  0  1)  ( 0 -1  1)  (-1  0  0)  ( 1 -1  0)  ( 0  0 -1)

  (-1  1  0)  (-1  1  0)  (-1  1  0)  (-1  1  0)  (-1  0  1)  (-1  0  1)
  ( 0  1  0)  ( 0  1 -1)  (-1  0  1)  (-1  0  0)  ( 0  0  1)  ( 0 -1  1)
  ( 0  1 -1)  ( 0  1  0)  (-1  0  0)  (-1  0  1)  ( 0 -1  1)  ( 0  0  1)

  (-1  0  1)  (-1  0  1)  (-1  0  0)  (-1  0  0)  (-1  0  0)  (-1  0  0)
  (-1  1  0)  (-1  0  0)  ( 0  0 -1)  ( 0 -1  0)  (-1  1  0)  (-1  0  1)
  (-1  0  0)  (-1  1  0)  ( 0 -1  0)  ( 0  0 -1)  (-1  0  1)  (-1  1  0)
Note: your k-points are not as symmetric as your crystal!

1728 k-points: 12 x 12 x 12 Monkhorst-Pack grid
182 k-points in the irreducible part of the Brillouin zone
       k-points in crystal coordinates                weights
   0:     0.04166667    0.04166667   -0.04166667          6/1728
   1:     0.04166667    0.04166667    0.04166667          2/1728
   2:     0.12500000   -0.04166667   -0.04166667          6/1728
   3:     0.12500000    0.04166667   -0.12500000         12/1728
   4:     0.12500000    0.04166667   -0.04166667         12/1728
   5:     0.12500000    0.04166667    0.04166667          6/1728
   6:     0.12500000    0.12500000   -0.12500000          6/1728
   7:     0.12500000    0.12500000   -0.04166667          6/1728
   8:     0.12500000    0.12500000    0.04166667          6/1728
   9:     0.12500000    0.12500000    0.12500000          2/1728
          ...
 181:     0.45833333    0.45833333    0.45833333          2/1728

Wave functions: Plane wave expansion
  Cutoff energy: 450.000 eV
  Number of coefficients (min, max): 326, 341
  Pulay-stress correction: 0.000000 eV/Ang^3 (de/decut=0.000000)
  Using FFTW library
  ScaLapack parameters: grid=1x1, blocksize=None
  Wavefunction extrapolation:
    Improved wavefunction reuse through dual PAW basis 

Eigensolver
   Davidson(niter=2, smin=None, normalize=True) 

Densities:
  Coarse grid: 14*14*14 grid
  Fine grid: 28*28*28 grid
  Total Charge: 0.000000 

Density mixing:
  Method: separate
  Backend: pulay
  Linear mixing parameter: 0.05
  Mixing with 5 old densities
  Damping of long wave oscillations: 50 

Hamiltonian:
  XC and Coulomb potentials evaluated on a 28*28*28 grid
  Using the PBE Exchange-Correlation functional
 

XC parameters: PBE with 2 nearest neighbor stencil

Memory estimate:
  Process memory now: 112.34 MiB
  Calculator: 2.70 MiB
    Density: 1.13 MiB
      Arrays: 0.54 MiB
      Localized functions: 0.37 MiB
      Mixer: 0.21 MiB
    Hamiltonian: 0.36 MiB
      Arrays: 0.36 MiB
      XC: 0.00 MiB
      Poisson: 0.00 MiB
      vbar: 0.01 MiB
    Wavefunctions: 1.21 MiB
      Arrays psit_nG: 0.52 MiB
      Eigensolver: 0.09 MiB
      Projections: 0.03 MiB
      Projectors: 0.42 MiB
      PW-descriptor: 0.16 MiB

Total number of cores used: 16
Parallelization over k-points: 16

Number of atoms: 1
Number of atomic orbitals: 9
Number of bands in calculation: 9
Bands to converge: occupied states only
Number of valence electrons: 11

... initialized

Initializing position-dependent things.

Density initialized from atomic densities
Creating initial wave functions:
  9 bands from LCAO basis set

                
                
                
       Au       
                
                
                
                

Positions:
   0 Au     0.000000    0.000000    0.000000    ( 0.0000,  0.0000,  0.0000)

Unit cell:
           periodic     x           y           z      points  spacing
  1. axis:    yes    0.000000    1.975485    1.975485    14     0.1629
  2. axis:    yes    1.975485    0.000000    1.975485    14     0.1629
  3. axis:    yes    1.975485    1.975485    0.000000    14     0.1629

  Lengths:   2.793757   2.793757   2.793757
  Angles:   60.000000  60.000000  60.000000

Effective grid spacing dv^(1/3) = 0.1778

                     log10-error:    total        iterations:
           time      wfs    density  energy       fermi  poisson
iter:   1  21:45:59  +1.64   +inf    -3.147605    2             
iter:   2  21:45:59  -1.79  -1.35    -3.104012    3             
iter:   3  21:45:59  -1.53  -1.37    -2.908968    29            
iter:   4  21:46:00  -2.81  -1.91    -2.876697    3             
iter:   5  21:46:00  -2.65  -2.06    -2.876307    3             
iter:   6  21:46:01  -3.65  -2.30    -2.871462    3             
iter:   7  21:46:01  -4.40  -2.85    -2.871212    3             
iter:   8  21:46:01  -5.39  -3.06    -2.871252    2             
iter:   9  21:46:02  -5.79  -3.57    -2.871233    2             
iter:  10  21:46:02  -7.30  -4.41    -2.871233    2             
iter:  11  21:46:02  -7.13  -4.25    -2.871234    2             
iter:  12  21:46:03  -8.99  -4.40    -2.871234    2             

Converged after 12 iterations.

Dipole moment: (0.000000, 0.000000, 0.000000) |e|*Ang

Energy contributions relative to reference atoms: (reference = -516598.271109)

Kinetic:         +6.882873
Potential:       -6.329287
External:        +0.000000
XC:              -3.579695
Entropy (-ST):   -0.008711
Local:           +0.159230
--------------------------
Free energy:     -2.875589
Extrapolated:    -2.871234

Fermi level: 11.85939

Showing only first 2 kpts
 Kpt  Band  Eigenvalues  Occupancy
  0     3      6.61329    0.00694
  0     4      8.18626    0.00694
  0     5      8.33822    0.00694
  0     6     27.89827    0.00000

  1     3      6.53071    0.00231
  1     4      8.29247    0.00231
  1     5      8.29247    0.00231
  1     6     27.70686    0.00000


No gap
System changes: cell 

Initialize ...

Au-setup:
  name: Gold
  id: b12133f335f6ca0d89c4b1ccaa844e9a
  Z: 79
  valence: 11
  core: 68
  charge: 0.0
  file: /apps/Common/software/GPAW-setups/0.9.20000/Au.PBE.gz
  compensation charges: gauss, rc=0.42, lmax=2
  cutoffs: 2.33(filt), 2.81(core),
  valence states:
                energy  radius
    6s(1.00)    -5.728   1.323
    6p(0.00)    -0.775   1.323
    5d(10.00)    -6.891   1.323
    *s          21.484   1.323
    *p          26.436   1.323
    *d          20.321   1.323

  Using partial waves for Au as LCAO basis

Reference energy: -516598.271109

Spin-paired calculation

Occupation numbers:
  Fermi-Dirac: width=0.1000 eV

Convergence criteria:
  Maximum total energy change: 0.0005 eV / electron
  Maximum integral of absolute density change: 0.0001 electrons
  Maximum integral of absolute eigenstate change: 4e-08 eV^2
  Maximum number of iterations: 333

Symmetries present (total): 48

  ( 1  0  0)  ( 1  0  0)  ( 1  0  0)  ( 1  0  0)  ( 1  0 -1)  ( 1  0 -1)
  ( 1  0 -1)  ( 1 -1  0)  ( 0  1  0)  ( 0  0  1)  ( 1  0  0)  ( 1 -1  0)
  ( 1 -1  0)  ( 1  0 -1)  ( 0  0  1)  ( 0  1  0)  ( 1 -1  0)  ( 1  0  0)

  ( 1  0 -1)  ( 1  0 -1)  ( 1 -1  0)  ( 1 -1  0)  ( 1 -1  0)  ( 1 -1  0)
  ( 0  1 -1)  ( 0  0 -1)  ( 1  0  0)  ( 1  0 -1)  ( 0 -1  1)  ( 0 -1  0)
  ( 0  0 -1)  ( 0  1 -1)  ( 1  0 -1)  ( 1  0  0)  ( 0 -1  0)  ( 0 -1  1)

  ( 0  1  0)  ( 0  1  0)  ( 0  1  0)  ( 0  1  0)  ( 0  1 -1)  ( 0  1 -1)
  ( 1  0  0)  ( 0  1 -1)  ( 0  0  1)  (-1  1  0)  ( 1  0 -1)  ( 0  1  0)
  ( 0  0  1)  (-1  1  0)  ( 1  0  0)  ( 0  1 -1)  ( 0  0 -1)  (-1  1  0)

  ( 0  1 -1)  ( 0  1 -1)  ( 0  0  1)  ( 0  0  1)  ( 0  0  1)  ( 0  0  1)
  ( 0  0 -1)  (-1  1  0)  ( 1  0  0)  ( 0  1  0)  ( 0 -1  1)  (-1  0  1)
  ( 1  0 -1)  ( 0  1  0)  ( 0  1  0)  ( 1  0  0)  (-1  0  1)  ( 0 -1  1)

  ( 0  0 -1)  ( 0  0 -1)  ( 0  0 -1)  ( 0  0 -1)  ( 0 -1  1)  ( 0 -1  1)
  ( 1  0 -1)  ( 0  1 -1)  ( 0 -1  0)  (-1  0  0)  ( 1 -1  0)  ( 0  0  1)
  ( 0  1 -1)  ( 1  0 -1)  (-1  0  0)  ( 0 -1  0)  ( 0 -1  0)  (-1  0  1)

  ( 0 -1  1)  ( 0 -1  1)  ( 0 -1  0)  ( 0 -1  0)  ( 0 -1  0)  ( 0 -1  0)
  ( 0 -1  0)  (-1  0  1)  ( 1 -1  0)  ( 0  0 -1)  ( 0 -1  1)  (-1  0  0)
  ( 1 -1  0)  ( 0  0  1)  ( 0 -1  1)  (-1  0  0)  ( 1 -1  0)  ( 0  0 -1)

  (-1  1  0)  (-1  1  0)  (-1  1  0)  (-1  1  0)  (-1  0  1)  (-1  0  1)
  ( 0  1  0)  ( 0  1 -1)  (-1  0  1)  (-1  0  0)  ( 0  0  1)  ( 0 -1  1)
  ( 0  1 -1)  ( 0  1  0)  (-1  0  0)  (-1  0  1)  ( 0 -1  1)  ( 0  0  1)

  (-1  0  1)  (-1  0  1)  (-1  0  0)  (-1  0  0)  (-1  0  0)  (-1  0  0)
  (-1  1  0)  (-1  0  0)  ( 0  0 -1)  ( 0 -1  0)  (-1  1  0)  (-1  0  1)
  (-1  0  0)  (-1  1  0)  ( 0 -1  0)  ( 0  0 -1)  (-1  0  1)  (-1  1  0)
Note: your k-points are not as symmetric as your crystal!

1728 k-points: 12 x 12 x 12 Monkhorst-Pack grid
182 k-points in the irreducible part of the Brillouin zone
       k-points in crystal coordinates                weights
   0:     0.04166667    0.04166667   -0.04166667          6/1728
   1:     0.04166667    0.04166667    0.04166667          2/1728
   2:     0.12500000   -0.04166667   -0.04166667          6/1728
   3:     0.12500000    0.04166667   -0.12500000         12/1728
   4:     0.12500000    0.04166667   -0.04166667         12/1728
   5:     0.12500000    0.04166667    0.04166667          6/1728
   6:     0.12500000    0.12500000   -0.12500000          6/1728
   7:     0.12500000    0.12500000   -0.04166667          6/1728
   8:     0.12500000    0.12500000    0.04166667          6/1728
   9:     0.12500000    0.12500000    0.12500000          2/1728
          ...
 181:     0.45833333    0.45833333    0.45833333          2/1728

Wave functions: Plane wave expansion
  Cutoff energy: 450.000 eV
  Number of coefficients (min, max): 327, 344
  Pulay-stress correction: 0.000000 eV/Ang^3 (de/decut=0.000000)
  Using FFTW library
  ScaLapack parameters: grid=1x1, blocksize=None
  Wavefunction extrapolation:
    Improved wavefunction reuse through dual PAW basis 

Eigensolver
   Davidson(niter=2, smin=None, normalize=True) 

Densities:
  Coarse grid: 14*14*14 grid
  Fine grid: 28*28*28 grid
  Total Charge: 0.000000 

Density mixing:
  Method: separate
  Backend: pulay
  Linear mixing parameter: 0.05
  Mixing with 5 old densities
  Damping of long wave oscillations: 50 

Hamiltonian:
  XC and Coulomb potentials evaluated on a 28*28*28 grid
  Using the PBE Exchange-Correlation functional
 

XC parameters: PBE with 2 nearest neighbor stencil

Memory estimate:
  Process memory now: 116.37 MiB
  Calculator: 2.70 MiB
    Density: 1.13 MiB
      Arrays: 0.54 MiB
      Localized functions: 0.37 MiB
      Mixer: 0.21 MiB
    Hamiltonian: 0.36 MiB
      Arrays: 0.36 MiB
      XC: 0.00 MiB
      Poisson: 0.00 MiB
      vbar: 0.01 MiB
    Wavefunctions: 1.21 MiB
      Arrays psit_nG: 0.52 MiB
      Eigensolver: 0.09 MiB
      Projections: 0.03 MiB
      Projectors: 0.42 MiB
      PW-descriptor: 0.16 MiB

Total number of cores used: 16
Parallelization over k-points: 16

Number of atoms: 1
Number of atomic orbitals: 9
Number of bands in calculation: 9
Bands to converge: occupied states only
Number of valence electrons: 11

... initialized

Initializing position-dependent things.

Density initialized from atomic densities
Creating initial wave functions:
  9 bands from LCAO basis set

                
                
                
       Au       
                
                
                
                

Positions:
   0 Au     0.000000    0.000000    0.000000    ( 0.0000,  0.0000,  0.0000)

Unit cell:
           periodic     x           y           z      points  spacing
  1. axis:    yes    0.000000    1.979719    1.979719    14     0.1633
  2. axis:    yes    1.979719    0.000000    1.979719    14     0.1633
  3. axis:    yes    1.979719    1.979719    0.000000    14     0.1633

  Lengths:   2.799746   2.799746   2.799746
  Angles:   60.000000  60.000000  60.000000

Effective grid spacing dv^(1/3) = 0.1782

                     log10-error:    total        iterations:
           time      wfs    density  energy       fermi  poisson
iter:   1  21:46:06  +1.64   +inf    -3.170839    2             
iter:   2  21:46:06  -1.80  -1.35    -3.126782    3             
iter:   3  21:46:07  -1.53  -1.37    -2.932717    27            
iter:   4  21:46:07  -2.80  -1.90    -2.899347    3             
iter:   5  21:46:07  -2.66  -2.06    -2.898962    3             
iter:   6  21:46:08  -3.65  -2.31    -2.894183    3             
iter:   7  21:46:08  -4.43  -2.86    -2.893942    3             
iter:   8  21:46:08  -5.38  -3.07    -2.893982    2             
iter:   9  21:46:09  -5.81  -3.57    -2.893963    2             
iter:  10  21:46:09  -7.32  -4.39    -2.893963    2             
iter:  11  21:46:09  -7.10  -4.23    -2.893964    2             
iter:  12  21:46:10  -8.83  -4.39    -2.893964    2             

Converged after 12 iterations.

Dipole moment: (0.000000, 0.000000, 0.000000) |e|*Ang

Energy contributions relative to reference atoms: (reference = -516598.271109)

Kinetic:         +6.000222
Potential:       -5.570721
External:        +0.000000
XC:              -3.476959
Entropy (-ST):   -0.008713
Local:           +0.157851
--------------------------
Free energy:     -2.898321
Extrapolated:    -2.893964

Fermi level: 11.73240

Showing only first 2 kpts
 Kpt  Band  Eigenvalues  Occupancy
  0     3      6.52905    0.00694
  0     4      8.08470    0.00694
  0     5      8.23479    0.00694
  0     6     27.76831    0.00000

  1     3      6.44730    0.00231
  1     4      8.18954    0.00231
  1     5      8.18954    0.00231
  1     6     27.57050    0.00000


No gap
System changes: cell 

Initialize ...

Au-setup:
  name: Gold
  id: b12133f335f6ca0d89c4b1ccaa844e9a
  Z: 79
  valence: 11
  core: 68
  charge: 0.0
  file: /apps/Common/software/GPAW-setups/0.9.20000/Au.PBE.gz
  compensation charges: gauss, rc=0.42, lmax=2
  cutoffs: 2.33(filt), 2.81(core),
  valence states:
                energy  radius
    6s(1.00)    -5.728   1.323
    6p(0.00)    -0.775   1.323
    5d(10.00)    -6.891   1.323
    *s          21.484   1.323
    *p          26.436   1.323
    *d          20.321   1.323

  Using partial waves for Au as LCAO basis

Reference energy: -516598.271109

Spin-paired calculation

Occupation numbers:
  Fermi-Dirac: width=0.1000 eV

Convergence criteria:
  Maximum total energy change: 0.0005 eV / electron
  Maximum integral of absolute density change: 0.0001 electrons
  Maximum integral of absolute eigenstate change: 4e-08 eV^2
  Maximum number of iterations: 333

Symmetries present (total): 48

  ( 1  0  0)  ( 1  0  0)  ( 1  0  0)  ( 1  0  0)  ( 1  0 -1)  ( 1  0 -1)
  ( 1  0 -1)  ( 1 -1  0)  ( 0  1  0)  ( 0  0  1)  ( 1  0  0)  ( 1 -1  0)
  ( 1 -1  0)  ( 1  0 -1)  ( 0  0  1)  ( 0  1  0)  ( 1 -1  0)  ( 1  0  0)

  ( 1  0 -1)  ( 1  0 -1)  ( 1 -1  0)  ( 1 -1  0)  ( 1 -1  0)  ( 1 -1  0)
  ( 0  1 -1)  ( 0  0 -1)  ( 1  0  0)  ( 1  0 -1)  ( 0 -1  1)  ( 0 -1  0)
  ( 0  0 -1)  ( 0  1 -1)  ( 1  0 -1)  ( 1  0  0)  ( 0 -1  0)  ( 0 -1  1)

  ( 0  1  0)  ( 0  1  0)  ( 0  1  0)  ( 0  1  0)  ( 0  1 -1)  ( 0  1 -1)
  ( 1  0  0)  ( 0  1 -1)  ( 0  0  1)  (-1  1  0)  ( 1  0 -1)  ( 0  1  0)
  ( 0  0  1)  (-1  1  0)  ( 1  0  0)  ( 0  1 -1)  ( 0  0 -1)  (-1  1  0)

  ( 0  1 -1)  ( 0  1 -1)  ( 0  0  1)  ( 0  0  1)  ( 0  0  1)  ( 0  0  1)
  ( 0  0 -1)  (-1  1  0)  ( 1  0  0)  ( 0  1  0)  ( 0 -1  1)  (-1  0  1)
  ( 1  0 -1)  ( 0  1  0)  ( 0  1  0)  ( 1  0  0)  (-1  0  1)  ( 0 -1  1)

  ( 0  0 -1)  ( 0  0 -1)  ( 0  0 -1)  ( 0  0 -1)  ( 0 -1  1)  ( 0 -1  1)
  ( 1  0 -1)  ( 0  1 -1)  ( 0 -1  0)  (-1  0  0)  ( 1 -1  0)  ( 0  0  1)
  ( 0  1 -1)  ( 1  0 -1)  (-1  0  0)  ( 0 -1  0)  ( 0 -1  0)  (-1  0  1)

  ( 0 -1  1)  ( 0 -1  1)  ( 0 -1  0)  ( 0 -1  0)  ( 0 -1  0)  ( 0 -1  0)
  ( 0 -1  0)  (-1  0  1)  ( 1 -1  0)  ( 0  0 -1)  ( 0 -1  1)  (-1  0  0)
  ( 1 -1  0)  ( 0  0  1)  ( 0 -1  1)  (-1  0  0)  ( 1 -1  0)  ( 0  0 -1)

  (-1  1  0)  (-1  1  0)  (-1  1  0)  (-1  1  0)  (-1  0  1)  (-1  0  1)
  ( 0  1  0)  ( 0  1 -1)  (-1  0  1)  (-1  0  0)  ( 0  0  1)  ( 0 -1  1)
  ( 0  1 -1)  ( 0  1  0)  (-1  0  0)  (-1  0  1)  ( 0 -1  1)  ( 0  0  1)

  (-1  0  1)  (-1  0  1)  (-1  0  0)  (-1  0  0)  (-1  0  0)  (-1  0  0)
  (-1  1  0)  (-1  0  0)  ( 0  0 -1)  ( 0 -1  0)  (-1  1  0)  (-1  0  1)
  (-1  0  0)  (-1  1  0)  ( 0 -1  0)  ( 0  0 -1)  (-1  0  1)  (-1  1  0)
Note: your k-points are not as symmetric as your crystal!

1728 k-points: 12 x 12 x 12 Monkhorst-Pack grid
182 k-points in the irreducible part of the Brillouin zone
       k-points in crystal coordinates                weights
   0:     0.04166667    0.04166667   -0.04166667          6/1728
   1:     0.04166667    0.04166667    0.04166667          2/1728
   2:     0.12500000   -0.04166667   -0.04166667          6/1728
   3:     0.12500000    0.04166667   -0.12500000         12/1728
   4:     0.12500000    0.04166667   -0.04166667         12/1728
   5:     0.12500000    0.04166667    0.04166667          6/1728
   6:     0.12500000    0.12500000   -0.12500000          6/1728
   7:     0.12500000    0.12500000   -0.04166667          6/1728
   8:     0.12500000    0.12500000    0.04166667          6/1728
   9:     0.12500000    0.12500000    0.12500000          2/1728
          ...
 181:     0.45833333    0.45833333    0.45833333          2/1728

Wave functions: Plane wave expansion
  Cutoff energy: 450.000 eV
  Number of coefficients (min, max): 331, 346
  Pulay-stress correction: 0.000000 eV/Ang^3 (de/decut=0.000000)
  Using FFTW library
  ScaLapack parameters: grid=1x1, blocksize=None
  Wavefunction extrapolation:
    Improved wavefunction reuse through dual PAW basis 

Eigensolver
   Davidson(niter=2, smin=None, normalize=True) 

Densities:
  Coarse grid: 15*15*15 grid
  Fine grid: 30*30*30 grid
  Total Charge: 0.000000 

Density mixing:
  Method: separate
  Backend: pulay
  Linear mixing parameter: 0.05
  Mixing with 5 old densities
  Damping of long wave oscillations: 50 

Hamiltonian:
  XC and Coulomb potentials evaluated on a 30*30*30 grid
  Using the PBE Exchange-Correlation functional
 

XC parameters: PBE with 2 nearest neighbor stencil

Memory estimate:
  Process memory now: 120.29 MiB
  Calculator: 2.99 MiB
    Density: 1.31 MiB
      Arrays: 0.67 MiB
      Localized functions: 0.38 MiB
      Mixer: 0.26 MiB
    Hamiltonian: 0.45 MiB
      Arrays: 0.44 MiB
      XC: 0.00 MiB
      Poisson: 0.00 MiB
      vbar: 0.01 MiB
    Wavefunctions: 1.24 MiB
      Arrays psit_nG: 0.52 MiB
      Eigensolver: 0.09 MiB
      Projections: 0.03 MiB
      Projectors: 0.42 MiB
      PW-descriptor: 0.19 MiB

Total number of cores used: 16
Parallelization over k-points: 16

Number of atoms: 1
Number of atomic orbitals: 9
Number of bands in calculation: 9
Bands to converge: occupied states only
Number of valence electrons: 11

... initialized

Initializing position-dependent things.

Density initialized from atomic densities
Creating initial wave functions:
  9 bands from LCAO basis set

                
                
                
       Au       
                
                
                
                

Positions:
   0 Au     0.000000    0.000000    0.000000    ( 0.0000,  0.0000,  0.0000)

Unit cell:
           periodic     x           y           z      points  spacing
  1. axis:    yes    0.000000    1.983954    1.983954    15     0.1527
  2. axis:    yes    1.983954    0.000000    1.983954    15     0.1527
  3. axis:    yes    1.983954    1.983954    0.000000    15     0.1527

  Lengths:   2.805735   2.805735   2.805735
  Angles:   60.000000  60.000000  60.000000

Effective grid spacing dv^(1/3) = 0.1666

                     log10-error:    total        iterations:
           time      wfs    density  energy       fermi  poisson
iter:   1  21:46:13  +1.64   +inf    -3.192912    2             
iter:   2  21:46:14  -1.82  -1.35    -3.148398    3             
iter:   3  21:46:14  -1.52  -1.37    -2.955207    28            
iter:   4  21:46:14  -2.80  -1.89    -2.920943    3             
iter:   5  21:46:15  -2.65  -2.06    -2.920434    3             
iter:   6  21:46:15  -3.66  -2.31    -2.915785    3             
iter:   7  21:46:15  -4.48  -2.87    -2.915551    3             
iter:   8  21:46:16  -5.35  -3.09    -2.915590    2             
iter:   9  21:46:16  -5.83  -3.57    -2.915572    2             
iter:  10  21:46:17  -7.34  -4.35    -2.915572    2             
iter:  11  21:46:17  -7.05  -4.19    -2.915573    2             
iter:  12  21:46:17  -8.70  -4.40    -2.915573    2             

Converged after 12 iterations.

Dipole moment: (-0.000000, -0.000000, -0.000000) |e|*Ang

Energy contributions relative to reference atoms: (reference = -516598.271109)

Kinetic:         +5.146342
Potential:       -4.837572
External:        +0.000000
XC:              -3.376473
Entropy (-ST):   -0.008719
Local:           +0.156491
--------------------------
Free energy:     -2.919932
Extrapolated:    -2.915573

Fermi level: 11.60675

Showing only first 2 kpts
 Kpt  Band  Eigenvalues  Occupancy
  0     3      6.44535    0.00694
  0     4      7.98408    0.00694
  0     5      8.13233    0.00694
  0     6     27.63919    0.00000

  1     3      6.36460    0.00231
  1     4      8.08756    0.00231
  1     5      8.08756    0.00231
  1     6     27.44323    0.00000


No gap
System changes: cell 

Initialize ...

Au-setup:
  name: Gold
  id: b12133f335f6ca0d89c4b1ccaa844e9a
  Z: 79
  valence: 11
  core: 68
  charge: 0.0
  file: /apps/Common/software/GPAW-setups/0.9.20000/Au.PBE.gz
  compensation charges: gauss, rc=0.42, lmax=2
  cutoffs: 2.33(filt), 2.81(core),
  valence states:
                energy  radius
    6s(1.00)    -5.728   1.323
    6p(0.00)    -0.775   1.323
    5d(10.00)    -6.891   1.323
    *s          21.484   1.323
    *p          26.436   1.323
    *d          20.321   1.323

  Using partial waves for Au as LCAO basis

Reference energy: -516598.271109

Spin-paired calculation

Occupation numbers:
  Fermi-Dirac: width=0.1000 eV

Convergence criteria:
  Maximum total energy change: 0.0005 eV / electron
  Maximum integral of absolute density change: 0.0001 electrons
  Maximum integral of absolute eigenstate change: 4e-08 eV^2
  Maximum number of iterations: 333

Symmetries present (total): 48

  ( 1  0  0)  ( 1  0  0)  ( 1  0  0)  ( 1  0  0)  ( 1  0 -1)  ( 1  0 -1)
  ( 1  0 -1)  ( 1 -1  0)  ( 0  1  0)  ( 0  0  1)  ( 1  0  0)  ( 1 -1  0)
  ( 1 -1  0)  ( 1  0 -1)  ( 0  0  1)  ( 0  1  0)  ( 1 -1  0)  ( 1  0  0)

  ( 1  0 -1)  ( 1  0 -1)  ( 1 -1  0)  ( 1 -1  0)  ( 1 -1  0)  ( 1 -1  0)
  ( 0  1 -1)  ( 0  0 -1)  ( 1  0  0)  ( 1  0 -1)  ( 0 -1  1)  ( 0 -1  0)
  ( 0  0 -1)  ( 0  1 -1)  ( 1  0 -1)  ( 1  0  0)  ( 0 -1  0)  ( 0 -1  1)

  ( 0  1  0)  ( 0  1  0)  ( 0  1  0)  ( 0  1  0)  ( 0  1 -1)  ( 0  1 -1)
  ( 1  0  0)  ( 0  1 -1)  ( 0  0  1)  (-1  1  0)  ( 1  0 -1)  ( 0  1  0)
  ( 0  0  1)  (-1  1  0)  ( 1  0  0)  ( 0  1 -1)  ( 0  0 -1)  (-1  1  0)

  ( 0  1 -1)  ( 0  1 -1)  ( 0  0  1)  ( 0  0  1)  ( 0  0  1)  ( 0  0  1)
  ( 0  0 -1)  (-1  1  0)  ( 1  0  0)  ( 0  1  0)  ( 0 -1  1)  (-1  0  1)
  ( 1  0 -1)  ( 0  1  0)  ( 0  1  0)  ( 1  0  0)  (-1  0  1)  ( 0 -1  1)

  ( 0  0 -1)  ( 0  0 -1)  ( 0  0 -1)  ( 0  0 -1)  ( 0 -1  1)  ( 0 -1  1)
  ( 1  0 -1)  ( 0  1 -1)  ( 0 -1  0)  (-1  0  0)  ( 1 -1  0)  ( 0  0  1)
  ( 0  1 -1)  ( 1  0 -1)  (-1  0  0)  ( 0 -1  0)  ( 0 -1  0)  (-1  0  1)

  ( 0 -1  1)  ( 0 -1  1)  ( 0 -1  0)  ( 0 -1  0)  ( 0 -1  0)  ( 0 -1  0)
  ( 0 -1  0)  (-1  0  1)  ( 1 -1  0)  ( 0  0 -1)  ( 0 -1  1)  (-1  0  0)
  ( 1 -1  0)  ( 0  0  1)  ( 0 -1  1)  (-1  0  0)  ( 1 -1  0)  ( 0  0 -1)

  (-1  1  0)  (-1  1  0)  (-1  1  0)  (-1  1  0)  (-1  0  1)  (-1  0  1)
  ( 0  1  0)  ( 0  1 -1)  (-1  0  1)  (-1  0  0)  ( 0  0  1)  ( 0 -1  1)
  ( 0  1 -1)  ( 0  1  0)  (-1  0  0)  (-1  0  1)  ( 0 -1  1)  ( 0  0  1)

  (-1  0  1)  (-1  0  1)  (-1  0  0)  (-1  0  0)  (-1  0  0)  (-1  0  0)
  (-1  1  0)  (-1  0  0)  ( 0  0 -1)  ( 0 -1  0)  (-1  1  0)  (-1  0  1)
  (-1  0  0)  (-1  1  0)  ( 0 -1  0)  ( 0  0 -1)  (-1  0  1)  (-1  1  0)
Note: your k-points are not as symmetric as your crystal!

1728 k-points: 12 x 12 x 12 Monkhorst-Pack grid
182 k-points in the irreducible part of the Brillouin zone
       k-points in crystal coordinates                weights
   0:     0.04166667    0.04166667   -0.04166667          6/1728
   1:     0.04166667    0.04166667    0.04166667          2/1728
   2:     0.12500000   -0.04166667   -0.04166667          6/1728
   3:     0.12500000    0.04166667   -0.12500000         12/1728
   4:     0.12500000    0.04166667   -0.04166667         12/1728
   5:     0.12500000    0.04166667    0.04166667          6/1728
   6:     0.12500000    0.12500000   -0.12500000          6/1728
   7:     0.12500000    0.12500000   -0.04166667          6/1728
   8:     0.12500000    0.12500000    0.04166667          6/1728
   9:     0.12500000    0.12500000    0.12500000          2/1728
          ...
 181:     0.45833333    0.45833333    0.45833333          2/1728

Wave functions: Plane wave expansion
  Cutoff energy: 450.000 eV
  Number of coefficients (min, max): 331, 348
  Pulay-stress correction: 0.000000 eV/Ang^3 (de/decut=0.000000)
  Using FFTW library
  ScaLapack parameters: grid=1x1, blocksize=None
  Wavefunction extrapolation:
    Improved wavefunction reuse through dual PAW basis 

Eigensolver
   Davidson(niter=2, smin=None, normalize=True) 

Densities:
  Coarse grid: 15*15*15 grid
  Fine grid: 30*30*30 grid
  Total Charge: 0.000000 

Density mixing:
  Method: separate
  Backend: pulay
  Linear mixing parameter: 0.05
  Mixing with 5 old densities
  Damping of long wave oscillations: 50 

Hamiltonian:
  XC and Coulomb potentials evaluated on a 30*30*30 grid
  Using the PBE Exchange-Correlation functional
 

XC parameters: PBE with 2 nearest neighbor stencil

Memory estimate:
  Process memory now: 120.66 MiB
  Calculator: 3.01 MiB
    Density: 1.31 MiB
      Arrays: 0.67 MiB
      Localized functions: 0.39 MiB
      Mixer: 0.26 MiB
    Hamiltonian: 0.45 MiB
      Arrays: 0.44 MiB
      XC: 0.00 MiB
      Poisson: 0.00 MiB
      vbar: 0.01 MiB
    Wavefunctions: 1.25 MiB
      Arrays psit_nG: 0.53 MiB
      Eigensolver: 0.09 MiB
      Projections: 0.03 MiB
      Projectors: 0.42 MiB
      PW-descriptor: 0.19 MiB

Total number of cores used: 16
Parallelization over k-points: 16

Number of atoms: 1
Number of atomic orbitals: 9
Number of bands in calculation: 9
Bands to converge: occupied states only
Number of valence electrons: 11

... initialized

Initializing position-dependent things.

Density initialized from atomic densities
Creating initial wave functions:
  9 bands from LCAO basis set

                
                
                
       Au       
                
                
                
                

Positions:
   0 Au     0.000000    0.000000    0.000000    ( 0.0000,  0.0000,  0.0000)

Unit cell:
           periodic     x           y           z      points  spacing
  1. axis:    yes    0.000000    1.988189    1.988189    15     0.1531
  2. axis:    yes    1.988189    0.000000    1.988189    15     0.1531
  3. axis:    yes    1.988189    1.988189    0.000000    15     0.1531

  Lengths:   2.811724   2.811724   2.811724
  Angles:   60.000000  60.000000  60.000000

Effective grid spacing dv^(1/3) = 0.1670

                     log10-error:    total        iterations:
           time      wfs    density  energy       fermi  poisson
iter:   1  21:46:21  +1.64   +inf    -3.213584    2             
iter:   2  21:46:21  -1.83  -1.35    -3.168614    3             
iter:   3  21:46:21  -1.51  -1.36    -2.976281    29            
iter:   4  21:46:22  -2.80  -1.89    -2.941140    3             
iter:   5  21:46:22  -2.65  -2.06    -2.940640    3             
iter:   6  21:46:22  -3.66  -2.31    -2.936034    3             
iter:   7  21:46:23  -4.52  -2.88    -2.935808    3             
iter:   8  21:46:23  -5.34  -3.10    -2.935846    2             
iter:   9  21:46:24  -5.83  -3.57    -2.935827    2             
iter:  10  21:46:24  -7.35  -4.34    -2.935827    2             
iter:  11  21:46:24  -7.02  -4.17    -2.935828    2             
iter:  12  21:46:25  -8.51  -4.39    -2.935828    2             

Converged after 12 iterations.

Dipole moment: (0.000000, -0.000000, -0.000000) |e|*Ang

Energy contributions relative to reference atoms: (reference = -516598.271109)

Kinetic:         +4.317990
Potential:       -4.126503
External:        +0.000000
XC:              -3.277933
Entropy (-ST):   -0.008725
Local:           +0.154981
--------------------------
Free energy:     -2.940191
Extrapolated:    -2.935828

Fermi level: 11.48243

Showing only first 2 kpts
 Kpt  Band  Eigenvalues  Occupancy
  0     3      6.36250    0.00694
  0     4      7.88434    0.00694
  0     5      8.03077    0.00694
  0     6     27.51097    0.00000

  1     3      6.28256    0.00231
  1     4      7.98649    0.00231
  1     5      7.98649    0.00231
  1     6     27.31728    0.00000


No gap
System changes: cell 

Initialize ...

Au-setup:
  name: Gold
  id: b12133f335f6ca0d89c4b1ccaa844e9a
  Z: 79
  valence: 11
  core: 68
  charge: 0.0
  file: /apps/Common/software/GPAW-setups/0.9.20000/Au.PBE.gz
  compensation charges: gauss, rc=0.42, lmax=2
  cutoffs: 2.33(filt), 2.81(core),
  valence states:
                energy  radius
    6s(1.00)    -5.728   1.323
    6p(0.00)    -0.775   1.323
    5d(10.00)    -6.891   1.323
    *s          21.484   1.323
    *p          26.436   1.323
    *d          20.321   1.323

  Using partial waves for Au as LCAO basis

Reference energy: -516598.271109

Spin-paired calculation

Occupation numbers:
  Fermi-Dirac: width=0.1000 eV

Convergence criteria:
  Maximum total energy change: 0.0005 eV / electron
  Maximum integral of absolute density change: 0.0001 electrons
  Maximum integral of absolute eigenstate change: 4e-08 eV^2
  Maximum number of iterations: 333

Symmetries present (total): 48

  ( 1  0  0)  ( 1  0  0)  ( 1  0  0)  ( 1  0  0)  ( 1  0 -1)  ( 1  0 -1)
  ( 1  0 -1)  ( 1 -1  0)  ( 0  1  0)  ( 0  0  1)  ( 1  0  0)  ( 1 -1  0)
  ( 1 -1  0)  ( 1  0 -1)  ( 0  0  1)  ( 0  1  0)  ( 1 -1  0)  ( 1  0  0)

  ( 1  0 -1)  ( 1  0 -1)  ( 1 -1  0)  ( 1 -1  0)  ( 1 -1  0)  ( 1 -1  0)
  ( 0  1 -1)  ( 0  0 -1)  ( 1  0  0)  ( 1  0 -1)  ( 0 -1  1)  ( 0 -1  0)
  ( 0  0 -1)  ( 0  1 -1)  ( 1  0 -1)  ( 1  0  0)  ( 0 -1  0)  ( 0 -1  1)

  ( 0  1  0)  ( 0  1  0)  ( 0  1  0)  ( 0  1  0)  ( 0  1 -1)  ( 0  1 -1)
  ( 1  0  0)  ( 0  1 -1)  ( 0  0  1)  (-1  1  0)  ( 1  0 -1)  ( 0  1  0)
  ( 0  0  1)  (-1  1  0)  ( 1  0  0)  ( 0  1 -1)  ( 0  0 -1)  (-1  1  0)

  ( 0  1 -1)  ( 0  1 -1)  ( 0  0  1)  ( 0  0  1)  ( 0  0  1)  ( 0  0  1)
  ( 0  0 -1)  (-1  1  0)  ( 1  0  0)  ( 0  1  0)  ( 0 -1  1)  (-1  0  1)
  ( 1  0 -1)  ( 0  1  0)  ( 0  1  0)  ( 1  0  0)  (-1  0  1)  ( 0 -1  1)

  ( 0  0 -1)  ( 0  0 -1)  ( 0  0 -1)  ( 0  0 -1)  ( 0 -1  1)  ( 0 -1  1)
  ( 1  0 -1)  ( 0  1 -1)  ( 0 -1  0)  (-1  0  0)  ( 1 -1  0)  ( 0  0  1)
  ( 0  1 -1)  ( 1  0 -1)  (-1  0  0)  ( 0 -1  0)  ( 0 -1  0)  (-1  0  1)

  ( 0 -1  1)  ( 0 -1  1)  ( 0 -1  0)  ( 0 -1  0)  ( 0 -1  0)  ( 0 -1  0)
  ( 0 -1  0)  (-1  0  1)  ( 1 -1  0)  ( 0  0 -1)  ( 0 -1  1)  (-1  0  0)
  ( 1 -1  0)  ( 0  0  1)  ( 0 -1  1)  (-1  0  0)  ( 1 -1  0)  ( 0  0 -1)

  (-1  1  0)  (-1  1  0)  (-1  1  0)  (-1  1  0)  (-1  0  1)  (-1  0  1)
  ( 0  1  0)  ( 0  1 -1)  (-1  0  1)  (-1  0  0)  ( 0  0  1)  ( 0 -1  1)
  ( 0  1 -1)  ( 0  1  0)  (-1  0  0)  (-1  0  1)  ( 0 -1  1)  ( 0  0  1)

  (-1  0  1)  (-1  0  1)  (-1  0  0)  (-1  0  0)  (-1  0  0)  (-1  0  0)
  (-1  1  0)  (-1  0  0)  ( 0  0 -1)  ( 0 -1  0)  (-1  1  0)  (-1  0  1)
  (-1  0  0)  (-1  1  0)  ( 0 -1  0)  ( 0  0 -1)  (-1  0  1)  (-1  1  0)
Note: your k-points are not as symmetric as your crystal!

1728 k-points: 12 x 12 x 12 Monkhorst-Pack grid
182 k-points in the irreducible part of the Brillouin zone
       k-points in crystal coordinates                weights
   0:     0.04166667    0.04166667   -0.04166667          6/1728
   1:     0.04166667    0.04166667    0.04166667          2/1728
   2:     0.12500000   -0.04166667   -0.04166667          6/1728
   3:     0.12500000    0.04166667   -0.12500000         12/1728
   4:     0.12500000    0.04166667   -0.04166667         12/1728
   5:     0.12500000    0.04166667    0.04166667          6/1728
   6:     0.12500000    0.12500000   -0.12500000          6/1728
   7:     0.12500000    0.12500000   -0.04166667          6/1728
   8:     0.12500000    0.12500000    0.04166667          6/1728
   9:     0.12500000    0.12500000    0.12500000          2/1728
          ...
 181:     0.45833333    0.45833333    0.45833333          2/1728

Wave functions: Plane wave expansion
  Cutoff energy: 450.000 eV
  Number of coefficients (min, max): 332, 351
  Pulay-stress correction: 0.000000 eV/Ang^3 (de/decut=0.000000)
  Using FFTW library
  ScaLapack parameters: grid=1x1, blocksize=None
  Wavefunction extrapolation:
    Improved wavefunction reuse through dual PAW basis 

Eigensolver
   Davidson(niter=2, smin=None, normalize=True) 

Densities:
  Coarse grid: 15*15*15 grid
  Fine grid: 30*30*30 grid
  Total Charge: 0.000000 

Density mixing:
  Method: separate
  Backend: pulay
  Linear mixing parameter: 0.05
  Mixing with 5 old densities
  Damping of long wave oscillations: 50 

Hamiltonian:
  XC and Coulomb potentials evaluated on a 30*30*30 grid
  Using the PBE Exchange-Correlation functional
 

XC parameters: PBE with 2 nearest neighbor stencil

Memory estimate:
  Process memory now: 127.52 MiB
  Calculator: 3.02 MiB
    Density: 1.32 MiB
      Arrays: 0.67 MiB
      Localized functions: 0.39 MiB
      Mixer: 0.26 MiB
    Hamiltonian: 0.45 MiB
      Arrays: 0.44 MiB
      XC: 0.00 MiB
      Poisson: 0.00 MiB
      vbar: 0.01 MiB
    Wavefunctions: 1.25 MiB
      Arrays psit_nG: 0.53 MiB
      Eigensolver: 0.09 MiB
      Projections: 0.03 MiB
      Projectors: 0.42 MiB
      PW-descriptor: 0.19 MiB

Total number of cores used: 16
Parallelization over k-points: 16

Number of atoms: 1
Number of atomic orbitals: 9
Number of bands in calculation: 9
Bands to converge: occupied states only
Number of valence electrons: 11

... initialized

Initializing position-dependent things.

Density initialized from atomic densities
Creating initial wave functions:
  9 bands from LCAO basis set

                
                
                
       Au       
                
                
                
                

Positions:
   0 Au     0.000000    0.000000    0.000000    ( 0.0000,  0.0000,  0.0000)

Unit cell:
           periodic     x           y           z      points  spacing
  1. axis:    yes    0.000000    1.992423    1.992423    15     0.1534
  2. axis:    yes    1.992423    0.000000    1.992423    15     0.1534
  3. axis:    yes    1.992423    1.992423    0.000000    15     0.1534

  Lengths:   2.817712   2.817712   2.817712
  Angles:   60.000000  60.000000  60.000000

Effective grid spacing dv^(1/3) = 0.1674

                     log10-error:    total        iterations:
           time      wfs    density  energy       fermi  poisson
iter:   1  21:46:28  +1.64   +inf    -3.233192    2             
iter:   2  21:46:28  -1.84  -1.34    -3.187777    3             
iter:   3  21:46:29  -1.51  -1.36    -2.996209    28            
iter:   4  21:46:29  -2.79  -1.88    -2.960332    3             
iter:   5  21:46:29  -2.65  -2.06    -2.959841    3             
iter:   6  21:46:30  -3.66  -2.32    -2.955268    3             
iter:   7  21:46:30  -4.56  -2.89    -2.955051    3             
iter:   8  21:46:30  -5.33  -3.11    -2.955088    3             
iter:   9  21:46:31  -5.83  -3.56    -2.955069    2             
iter:  10  21:46:31  -7.38  -4.32    -2.955069    2             
iter:  11  21:46:32  -6.99  -4.16    -2.955070    2             
iter:  12  21:46:32  -8.37  -4.38    -2.955070    2             

Converged after 12 iterations.

Dipole moment: (-0.000000, 0.000000, 0.000000) |e|*Ang

Energy contributions relative to reference atoms: (reference = -516598.271109)

Kinetic:         +3.506151
Potential:       -3.429510
External:        +0.000000
XC:              -3.181031
Entropy (-ST):   -0.008732
Local:           +0.153687
--------------------------
Free energy:     -2.959436
Extrapolated:    -2.955070

Fermi level: 11.35943

Showing only first 2 kpts
 Kpt  Band  Eigenvalues  Occupancy
  0     3      6.28032    0.00694
  0     4      7.78547    0.00694
  0     5      7.93011    0.00694
  0     6     27.38361    0.00000

  1     3      6.20119    0.00231
  1     4      7.88630    0.00231
  1     5      7.88630    0.00231
  1     6     27.19237    0.00000


No gap
System changes: cell 

Initialize ...

Au-setup:
  name: Gold
  id: b12133f335f6ca0d89c4b1ccaa844e9a
  Z: 79
  valence: 11
  core: 68
  charge: 0.0
  file: /apps/Common/software/GPAW-setups/0.9.20000/Au.PBE.gz
  compensation charges: gauss, rc=0.42, lmax=2
  cutoffs: 2.33(filt), 2.81(core),
  valence states:
                energy  radius
    6s(1.00)    -5.728   1.323
    6p(0.00)    -0.775   1.323
    5d(10.00)    -6.891   1.323
    *s          21.484   1.323
    *p          26.436   1.323
    *d          20.321   1.323

  Using partial waves for Au as LCAO basis

Reference energy: -516598.271109

Spin-paired calculation

Occupation numbers:
  Fermi-Dirac: width=0.1000 eV

Convergence criteria:
  Maximum total energy change: 0.0005 eV / electron
  Maximum integral of absolute density change: 0.0001 electrons
  Maximum integral of absolute eigenstate change: 4e-08 eV^2
  Maximum number of iterations: 333

Symmetries present (total): 48

  ( 1  0  0)  ( 1  0  0)  ( 1  0  0)  ( 1  0  0)  ( 1  0 -1)  ( 1  0 -1)
  ( 1  0 -1)  ( 1 -1  0)  ( 0  1  0)  ( 0  0  1)  ( 1  0  0)  ( 1 -1  0)
  ( 1 -1  0)  ( 1  0 -1)  ( 0  0  1)  ( 0  1  0)  ( 1 -1  0)  ( 1  0  0)

  ( 1  0 -1)  ( 1  0 -1)  ( 1 -1  0)  ( 1 -1  0)  ( 1 -1  0)  ( 1 -1  0)
  ( 0  1 -1)  ( 0  0 -1)  ( 1  0  0)  ( 1  0 -1)  ( 0 -1  1)  ( 0 -1  0)
  ( 0  0 -1)  ( 0  1 -1)  ( 1  0 -1)  ( 1  0  0)  ( 0 -1  0)  ( 0 -1  1)

  ( 0  1  0)  ( 0  1  0)  ( 0  1  0)  ( 0  1  0)  ( 0  1 -1)  ( 0  1 -1)
  ( 1  0  0)  ( 0  1 -1)  ( 0  0  1)  (-1  1  0)  ( 1  0 -1)  ( 0  1  0)
  ( 0  0  1)  (-1  1  0)  ( 1  0  0)  ( 0  1 -1)  ( 0  0 -1)  (-1  1  0)

  ( 0  1 -1)  ( 0  1 -1)  ( 0  0  1)  ( 0  0  1)  ( 0  0  1)  ( 0  0  1)
  ( 0  0 -1)  (-1  1  0)  ( 1  0  0)  ( 0  1  0)  ( 0 -1  1)  (-1  0  1)
  ( 1  0 -1)  ( 0  1  0)  ( 0  1  0)  ( 1  0  0)  (-1  0  1)  ( 0 -1  1)

  ( 0  0 -1)  ( 0  0 -1)  ( 0  0 -1)  ( 0  0 -1)  ( 0 -1  1)  ( 0 -1  1)
  ( 1  0 -1)  ( 0  1 -1)  ( 0 -1  0)  (-1  0  0)  ( 1 -1  0)  ( 0  0  1)
  ( 0  1 -1)  ( 1  0 -1)  (-1  0  0)  ( 0 -1  0)  ( 0 -1  0)  (-1  0  1)

  ( 0 -1  1)  ( 0 -1  1)  ( 0 -1  0)  ( 0 -1  0)  ( 0 -1  0)  ( 0 -1  0)
  ( 0 -1  0)  (-1  0  1)  ( 1 -1  0)  ( 0  0 -1)  ( 0 -1  1)  (-1  0  0)
  ( 1 -1  0)  ( 0  0  1)  ( 0 -1  1)  (-1  0  0)  ( 1 -1  0)  ( 0  0 -1)

  (-1  1  0)  (-1  1  0)  (-1  1  0)  (-1  1  0)  (-1  0  1)  (-1  0  1)
  ( 0  1  0)  ( 0  1 -1)  (-1  0  1)  (-1  0  0)  ( 0  0  1)  ( 0 -1  1)
  ( 0  1 -1)  ( 0  1  0)  (-1  0  0)  (-1  0  1)  ( 0 -1  1)  ( 0  0  1)

  (-1  0  1)  (-1  0  1)  (-1  0  0)  (-1  0  0)  (-1  0  0)  (-1  0  0)
  (-1  1  0)  (-1  0  0)  ( 0  0 -1)  ( 0 -1  0)  (-1  1  0)  (-1  0  1)
  (-1  0  0)  (-1  1  0)  ( 0 -1  0)  ( 0  0 -1)  (-1  0  1)  (-1  1  0)
Note: your k-points are not as symmetric as your crystal!

1728 k-points: 12 x 12 x 12 Monkhorst-Pack grid
182 k-points in the irreducible part of the Brillouin zone
       k-points in crystal coordinates                weights
   0:     0.04166667    0.04166667   -0.04166667          6/1728
   1:     0.04166667    0.04166667    0.04166667          2/1728
   2:     0.12500000   -0.04166667   -0.04166667          6/1728
   3:     0.12500000    0.04166667   -0.12500000         12/1728
   4:     0.12500000    0.04166667   -0.04166667         12/1728
   5:     0.12500000    0.04166667    0.04166667          6/1728
   6:     0.12500000    0.12500000   -0.12500000          6/1728
   7:     0.12500000    0.12500000   -0.04166667          6/1728
   8:     0.12500000    0.12500000    0.04166667          6/1728
   9:     0.12500000    0.12500000    0.12500000          2/1728
          ...
 181:     0.45833333    0.45833333    0.45833333          2/1728

Wave functions: Plane wave expansion
  Cutoff energy: 450.000 eV
  Number of coefficients (min, max): 335, 354
  Pulay-stress correction: 0.000000 eV/Ang^3 (de/decut=0.000000)
  Using FFTW library
  ScaLapack parameters: grid=1x1, blocksize=None
  Wavefunction extrapolation:
    Improved wavefunction reuse through dual PAW basis 

Eigensolver
   Davidson(niter=2, smin=None, normalize=True) 

Densities:
  Coarse grid: 15*15*15 grid
  Fine grid: 30*30*30 grid
  Total Charge: 0.000000 

Density mixing:
  Method: separate
  Backend: pulay
  Linear mixing parameter: 0.05
  Mixing with 5 old densities
  Damping of long wave oscillations: 50 

Hamiltonian:
  XC and Coulomb potentials evaluated on a 30*30*30 grid
  Using the PBE Exchange-Correlation functional
 

XC parameters: PBE with 2 nearest neighbor stencil

Memory estimate:
  Process memory now: 131.29 MiB
  Calculator: 3.03 MiB
    Density: 1.32 MiB
      Arrays: 0.67 MiB
      Localized functions: 0.39 MiB
      Mixer: 0.26 MiB
    Hamiltonian: 0.45 MiB
      Arrays: 0.44 MiB
      XC: 0.00 MiB
      Poisson: 0.00 MiB
      vbar: 0.01 MiB
    Wavefunctions: 1.26 MiB
      Arrays psit_nG: 0.53 MiB
      Eigensolver: 0.09 MiB
      Projections: 0.03 MiB
      Projectors: 0.42 MiB
      PW-descriptor: 0.19 MiB

Total number of cores used: 16
Parallelization over k-points: 16

Number of atoms: 1
Number of atomic orbitals: 9
Number of bands in calculation: 9
Bands to converge: occupied states only
Number of valence electrons: 11

... initialized

Initializing position-dependent things.

Density initialized from atomic densities
Creating initial wave functions:
  9 bands from LCAO basis set

                
                
                
       Au       
                
                
                
                

Positions:
   0 Au     0.000000    0.000000    0.000000    ( 0.0000,  0.0000,  0.0000)

Unit cell:
           periodic     x           y           z      points  spacing
  1. axis:    yes    0.000000    1.996658    1.996658    15     0.1537
  2. axis:    yes    1.996658    0.000000    1.996658    15     0.1537
  3. axis:    yes    1.996658    1.996658    0.000000    15     0.1537

  Lengths:   2.823701   2.823701   2.823701
  Angles:   60.000000  60.000000  60.000000

Effective grid spacing dv^(1/3) = 0.1677

                     log10-error:    total        iterations:
           time      wfs    density  energy       fermi  poisson
iter:   1  21:46:35  +1.64   +inf    -3.251547    2             
iter:   2  21:46:36  -1.85  -1.34    -3.205696    3             
iter:   3  21:46:36  -1.50  -1.36    -3.014825    28            
iter:   4  21:46:36  -2.79  -1.88    -2.978332    3             
iter:   5  21:46:37  -2.65  -2.06    -2.977851    3             
iter:   6  21:46:37  -3.66  -2.32    -2.973303    3             
iter:   7  21:46:37  -4.60  -2.90    -2.973095    3             
iter:   8  21:46:38  -5.32  -3.12    -2.973129    3             
iter:   9  21:46:38  -5.83  -3.56    -2.973110    2             
iter:  10  21:46:39  -7.41  -4.31    -2.973110    2             

Converged after 10 iterations.

Dipole moment: (-0.000000, -0.000000, -0.000000) |e|*Ang

Energy contributions relative to reference atoms: (reference = -516598.271109)

Kinetic:         +2.861008
Potential:       -2.889098
External:        +0.000000
XC:              -3.093854
Entropy (-ST):   -0.008741
Local:           +0.153205
--------------------------
Free energy:     -2.977481
Extrapolated:    -2.973110

Fermi level: 11.23874

Showing only first 2 kpts
 Kpt  Band  Eigenvalues  Occupancy
  0     3      6.20017    0.00694
  0     4      7.68899    0.00694
  0     5      7.83190    0.00694
  0     6     27.25746    0.00000

  1     3      6.12164    0.00231
  1     4      7.78855    0.00231
  1     5      7.78855    0.00231
  1     6     27.08331    0.00000


No gap
System changes: cell 

Initialize ...

Au-setup:
  name: Gold
  id: b12133f335f6ca0d89c4b1ccaa844e9a
  Z: 79
  valence: 11
  core: 68
  charge: 0.0
  file: /apps/Common/software/GPAW-setups/0.9.20000/Au.PBE.gz
  compensation charges: gauss, rc=0.42, lmax=2
  cutoffs: 2.33(filt), 2.81(core),
  valence states:
                energy  radius
    6s(1.00)    -5.728   1.323
    6p(0.00)    -0.775   1.323
    5d(10.00)    -6.891   1.323
    *s          21.484   1.323
    *p          26.436   1.323
    *d          20.321   1.323

  Using partial waves for Au as LCAO basis

Reference energy: -516598.271109

Spin-paired calculation

Occupation numbers:
  Fermi-Dirac: width=0.1000 eV

Convergence criteria:
  Maximum total energy change: 0.0005 eV / electron
  Maximum integral of absolute density change: 0.0001 electrons
  Maximum integral of absolute eigenstate change: 4e-08 eV^2
  Maximum number of iterations: 333

Symmetries present (total): 48

  ( 1  0  0)  ( 1  0  0)  ( 1  0  0)  ( 1  0  0)  ( 1  0 -1)  ( 1  0 -1)
  ( 1  0 -1)  ( 1 -1  0)  ( 0  1  0)  ( 0  0  1)  ( 1  0  0)  ( 1 -1  0)
  ( 1 -1  0)  ( 1  0 -1)  ( 0  0  1)  ( 0  1  0)  ( 1 -1  0)  ( 1  0  0)

  ( 1  0 -1)  ( 1  0 -1)  ( 1 -1  0)  ( 1 -1  0)  ( 1 -1  0)  ( 1 -1  0)
  ( 0  1 -1)  ( 0  0 -1)  ( 1  0  0)  ( 1  0 -1)  ( 0 -1  1)  ( 0 -1  0)
  ( 0  0 -1)  ( 0  1 -1)  ( 1  0 -1)  ( 1  0  0)  ( 0 -1  0)  ( 0 -1  1)

  ( 0  1  0)  ( 0  1  0)  ( 0  1  0)  ( 0  1  0)  ( 0  1 -1)  ( 0  1 -1)
  ( 1  0  0)  ( 0  1 -1)  ( 0  0  1)  (-1  1  0)  ( 1  0 -1)  ( 0  1  0)
  ( 0  0  1)  (-1  1  0)  ( 1  0  0)  ( 0  1 -1)  ( 0  0 -1)  (-1  1  0)

  ( 0  1 -1)  ( 0  1 -1)  ( 0  0  1)  ( 0  0  1)  ( 0  0  1)  ( 0  0  1)
  ( 0  0 -1)  (-1  1  0)  ( 1  0  0)  ( 0  1  0)  ( 0 -1  1)  (-1  0  1)
  ( 1  0 -1)  ( 0  1  0)  ( 0  1  0)  ( 1  0  0)  (-1  0  1)  ( 0 -1  1)

  ( 0  0 -1)  ( 0  0 -1)  ( 0  0 -1)  ( 0  0 -1)  ( 0 -1  1)  ( 0 -1  1)
  ( 1  0 -1)  ( 0  1 -1)  ( 0 -1  0)  (-1  0  0)  ( 1 -1  0)  ( 0  0  1)
  ( 0  1 -1)  ( 1  0 -1)  (-1  0  0)  ( 0 -1  0)  ( 0 -1  0)  (-1  0  1)

  ( 0 -1  1)  ( 0 -1  1)  ( 0 -1  0)  ( 0 -1  0)  ( 0 -1  0)  ( 0 -1  0)
  ( 0 -1  0)  (-1  0  1)  ( 1 -1  0)  ( 0  0 -1)  ( 0 -1  1)  (-1  0  0)
  ( 1 -1  0)  ( 0  0  1)  ( 0 -1  1)  (-1  0  0)  ( 1 -1  0)  ( 0  0 -1)

  (-1  1  0)  (-1  1  0)  (-1  1  0)  (-1  1  0)  (-1  0  1)  (-1  0  1)
  ( 0  1  0)  ( 0  1 -1)  (-1  0  1)  (-1  0  0)  ( 0  0  1)  ( 0 -1  1)
  ( 0  1 -1)  ( 0  1  0)  (-1  0  0)  (-1  0  1)  ( 0 -1  1)  ( 0  0  1)

  (-1  0  1)  (-1  0  1)  (-1  0  0)  (-1  0  0)  (-1  0  0)  (-1  0  0)
  (-1  1  0)  (-1  0  0)  ( 0  0 -1)  ( 0 -1  0)  (-1  1  0)  (-1  0  1)
  (-1  0  0)  (-1  1  0)  ( 0 -1  0)  ( 0  0 -1)  (-1  0  1)  (-1  1  0)
Note: your k-points are not as symmetric as your crystal!

1728 k-points: 12 x 12 x 12 Monkhorst-Pack grid
182 k-points in the irreducible part of the Brillouin zone
       k-points in crystal coordinates                weights
   0:     0.04166667    0.04166667   -0.04166667          6/1728
   1:     0.04166667    0.04166667    0.04166667          2/1728
   2:     0.12500000   -0.04166667   -0.04166667          6/1728
   3:     0.12500000    0.04166667   -0.12500000         12/1728
   4:     0.12500000    0.04166667   -0.04166667         12/1728
   5:     0.12500000    0.04166667    0.04166667          6/1728
   6:     0.12500000    0.12500000   -0.12500000          6/1728
   7:     0.12500000    0.12500000   -0.04166667          6/1728
   8:     0.12500000    0.12500000    0.04166667          6/1728
   9:     0.12500000    0.12500000    0.12500000          2/1728
          ...
 181:     0.45833333    0.45833333    0.45833333          2/1728

Wave functions: Plane wave expansion
  Cutoff energy: 450.000 eV
  Number of coefficients (min, max): 335, 357
  Pulay-stress correction: 0.000000 eV/Ang^3 (de/decut=0.000000)
  Using FFTW library
  ScaLapack parameters: grid=1x1, blocksize=None
  Wavefunction extrapolation:
    Improved wavefunction reuse through dual PAW basis 

Eigensolver
   Davidson(niter=2, smin=None, normalize=True) 

Densities:
  Coarse grid: 15*15*15 grid
  Fine grid: 30*30*30 grid
  Total Charge: 0.000000 

Density mixing:
  Method: separate
  Backend: pulay
  Linear mixing parameter: 0.05
  Mixing with 5 old densities
  Damping of long wave oscillations: 50 

Hamiltonian:
  XC and Coulomb potentials evaluated on a 30*30*30 grid
  Using the PBE Exchange-Correlation functional
 

XC parameters: PBE with 2 nearest neighbor stencil

Memory estimate:
  Process memory now: 133.93 MiB
  Calculator: 3.04 MiB
    Density: 1.32 MiB
      Arrays: 0.67 MiB
      Localized functions: 0.39 MiB
      Mixer: 0.26 MiB
    Hamiltonian: 0.45 MiB
      Arrays: 0.44 MiB
      XC: 0.00 MiB
      Poisson: 0.00 MiB
      vbar: 0.01 MiB
    Wavefunctions: 1.27 MiB
      Arrays psit_nG: 0.54 MiB
      Eigensolver: 0.09 MiB
      Projections: 0.03 MiB
      Projectors: 0.43 MiB
      PW-descriptor: 0.19 MiB

Total number of cores used: 16
Parallelization over k-points: 16

Number of atoms: 1
Number of atomic orbitals: 9
Number of bands in calculation: 9
Bands to converge: occupied states only
Number of valence electrons: 11

... initialized

Initializing position-dependent things.

Density initialized from atomic densities
Creating initial wave functions:
  9 bands from LCAO basis set

                
                
                
       Au       
                
                
                
                

Positions:
   0 Au     0.000000    0.000000    0.000000    ( 0.0000,  0.0000,  0.0000)

Unit cell:
           periodic     x           y           z      points  spacing
  1. axis:    yes    0.000000    2.000893    2.000893    15     0.1540
  2. axis:    yes    2.000893    0.000000    2.000893    15     0.1540
  3. axis:    yes    2.000893    2.000893    0.000000    15     0.1540

  Lengths:   2.829690   2.829690   2.829690
  Angles:   60.000000  60.000000  60.000000

Effective grid spacing dv^(1/3) = 0.1681

                     log10-error:    total        iterations:
           time      wfs    density  energy       fermi  poisson
iter:   1  21:46:42  +1.64   +inf    -3.268837    2             
iter:   2  21:46:42  -1.87  -1.34    -3.222566    3             
iter:   3  21:46:43  -1.50  -1.36    -3.032350    29            
iter:   4  21:46:43  -2.79  -1.87    -2.995332    3             
iter:   5  21:46:43  -2.65  -2.06    -2.994868    3             
iter:   6  21:46:44  -3.66  -2.32    -2.990331    3             
iter:   7  21:46:44  -4.65  -2.90    -2.990132    3             
iter:   8  21:46:44  -5.29  -3.13    -2.990163    3             
iter:   9  21:46:45  -5.83  -3.55    -2.990144    2             
iter:  10  21:46:45  -7.45  -4.29    -2.990144    2             

Converged after 10 iterations.

Dipole moment: (0.000000, 0.000000, 0.000000) |e|*Ang

Energy contributions relative to reference atoms: (reference = -516598.271109)

Kinetic:         +2.090826
Potential:       -2.227943
External:        +0.000000
XC:              -3.000540
Entropy (-ST):   -0.008747
Local:           +0.151886
--------------------------
Free energy:     -2.994517
Extrapolated:    -2.990144

Fermi level: 11.11827

Showing only first 2 kpts
 Kpt  Band  Eigenvalues  Occupancy
  0     3      6.11931    0.00694
  0     4      7.59184    0.00694
  0     5      7.73300    0.00694
  0     6     27.13172    0.00000

  1     3      6.04157    0.00231
  1     4      7.69012    0.00231
  1     5      7.69012    0.00231
  1     6     26.95610    0.00000


No gap
System changes: cell 

Initialize ...

Au-setup:
  name: Gold
  id: b12133f335f6ca0d89c4b1ccaa844e9a
  Z: 79
  valence: 11
  core: 68
  charge: 0.0
  file: /apps/Common/software/GPAW-setups/0.9.20000/Au.PBE.gz
  compensation charges: gauss, rc=0.42, lmax=2
  cutoffs: 2.33(filt), 2.81(core),
  valence states:
                energy  radius
    6s(1.00)    -5.728   1.323
    6p(0.00)    -0.775   1.323
    5d(10.00)    -6.891   1.323
    *s          21.484   1.323
    *p          26.436   1.323
    *d          20.321   1.323

  Using partial waves for Au as LCAO basis

Reference energy: -516598.271109

Spin-paired calculation

Occupation numbers:
  Fermi-Dirac: width=0.1000 eV

Convergence criteria:
  Maximum total energy change: 0.0005 eV / electron
  Maximum integral of absolute density change: 0.0001 electrons
  Maximum integral of absolute eigenstate change: 4e-08 eV^2
  Maximum number of iterations: 333

Symmetries present (total): 48

  ( 1  0  0)  ( 1  0  0)  ( 1  0  0)  ( 1  0  0)  ( 1  0 -1)  ( 1  0 -1)
  ( 1  0 -1)  ( 1 -1  0)  ( 0  1  0)  ( 0  0  1)  ( 1  0  0)  ( 1 -1  0)
  ( 1 -1  0)  ( 1  0 -1)  ( 0  0  1)  ( 0  1  0)  ( 1 -1  0)  ( 1  0  0)

  ( 1  0 -1)  ( 1  0 -1)  ( 1 -1  0)  ( 1 -1  0)  ( 1 -1  0)  ( 1 -1  0)
  ( 0  1 -1)  ( 0  0 -1)  ( 1  0  0)  ( 1  0 -1)  ( 0 -1  1)  ( 0 -1  0)
  ( 0  0 -1)  ( 0  1 -1)  ( 1  0 -1)  ( 1  0  0)  ( 0 -1  0)  ( 0 -1  1)

  ( 0  1  0)  ( 0  1  0)  ( 0  1  0)  ( 0  1  0)  ( 0  1 -1)  ( 0  1 -1)
  ( 1  0  0)  ( 0  1 -1)  ( 0  0  1)  (-1  1  0)  ( 1  0 -1)  ( 0  1  0)
  ( 0  0  1)  (-1  1  0)  ( 1  0  0)  ( 0  1 -1)  ( 0  0 -1)  (-1  1  0)

  ( 0  1 -1)  ( 0  1 -1)  ( 0  0  1)  ( 0  0  1)  ( 0  0  1)  ( 0  0  1)
  ( 0  0 -1)  (-1  1  0)  ( 1  0  0)  ( 0  1  0)  ( 0 -1  1)  (-1  0  1)
  ( 1  0 -1)  ( 0  1  0)  ( 0  1  0)  ( 1  0  0)  (-1  0  1)  ( 0 -1  1)

  ( 0  0 -1)  ( 0  0 -1)  ( 0  0 -1)  ( 0  0 -1)  ( 0 -1  1)  ( 0 -1  1)
  ( 1  0 -1)  ( 0  1 -1)  ( 0 -1  0)  (-1  0  0)  ( 1 -1  0)  ( 0  0  1)
  ( 0  1 -1)  ( 1  0 -1)  (-1  0  0)  ( 0 -1  0)  ( 0 -1  0)  (-1  0  1)

  ( 0 -1  1)  ( 0 -1  1)  ( 0 -1  0)  ( 0 -1  0)  ( 0 -1  0)  ( 0 -1  0)
  ( 0 -1  0)  (-1  0  1)  ( 1 -1  0)  ( 0  0 -1)  ( 0 -1  1)  (-1  0  0)
  ( 1 -1  0)  ( 0  0  1)  ( 0 -1  1)  (-1  0  0)  ( 1 -1  0)  ( 0  0 -1)

  (-1  1  0)  (-1  1  0)  (-1  1  0)  (-1  1  0)  (-1  0  1)  (-1  0  1)
  ( 0  1  0)  ( 0  1 -1)  (-1  0  1)  (-1  0  0)  ( 0  0  1)  ( 0 -1  1)
  ( 0  1 -1)  ( 0  1  0)  (-1  0  0)  (-1  0  1)  ( 0 -1  1)  ( 0  0  1)

  (-1  0  1)  (-1  0  1)  (-1  0  0)  (-1  0  0)  (-1  0  0)  (-1  0  0)
  (-1  1  0)  (-1  0  0)  ( 0  0 -1)  ( 0 -1  0)  (-1  1  0)  (-1  0  1)
  (-1  0  0)  (-1  1  0)  ( 0 -1  0)  ( 0  0 -1)  (-1  0  1)  (-1  1  0)
Note: your k-points are not as symmetric as your crystal!

1728 k-points: 12 x 12 x 12 Monkhorst-Pack grid
182 k-points in the irreducible part of the Brillouin zone
       k-points in crystal coordinates                weights
   0:     0.04166667    0.04166667   -0.04166667          6/1728
   1:     0.04166667    0.04166667    0.04166667          2/1728
   2:     0.12500000   -0.04166667   -0.04166667          6/1728
   3:     0.12500000    0.04166667   -0.12500000         12/1728
   4:     0.12500000    0.04166667   -0.04166667         12/1728
   5:     0.12500000    0.04166667    0.04166667          6/1728
   6:     0.12500000    0.12500000   -0.12500000          6/1728
   7:     0.12500000    0.12500000   -0.04166667          6/1728
   8:     0.12500000    0.12500000    0.04166667          6/1728
   9:     0.12500000    0.12500000    0.12500000          2/1728
          ...
 181:     0.45833333    0.45833333    0.45833333          2/1728

Wave functions: Plane wave expansion
  Cutoff energy: 450.000 eV
  Number of coefficients (min, max): 335, 359
  Pulay-stress correction: 0.000000 eV/Ang^3 (de/decut=0.000000)
  Using FFTW library
  ScaLapack parameters: grid=1x1, blocksize=None
  Wavefunction extrapolation:
    Improved wavefunction reuse through dual PAW basis 

Eigensolver
   Davidson(niter=2, smin=None, normalize=True) 

Densities:
  Coarse grid: 15*15*15 grid
  Fine grid: 30*30*30 grid
  Total Charge: 0.000000 

Density mixing:
  Method: separate
  Backend: pulay
  Linear mixing parameter: 0.05
  Mixing with 5 old densities
  Damping of long wave oscillations: 50 

Hamiltonian:
  XC and Coulomb potentials evaluated on a 30*30*30 grid
  Using the PBE Exchange-Correlation functional
 

XC parameters: PBE with 2 nearest neighbor stencil

Memory estimate:
  Process memory now: 135.74 MiB
  Calculator: 3.04 MiB
    Density: 1.32 MiB
      Arrays: 0.67 MiB
      Localized functions: 0.39 MiB
      Mixer: 0.26 MiB
    Hamiltonian: 0.45 MiB
      Arrays: 0.44 MiB
      XC: 0.00 MiB
      Poisson: 0.00 MiB
      vbar: 0.01 MiB
    Wavefunctions: 1.27 MiB
      Arrays psit_nG: 0.54 MiB
      Eigensolver: 0.09 MiB
      Projections: 0.03 MiB
      Projectors: 0.43 MiB
      PW-descriptor: 0.19 MiB

Total number of cores used: 16
Parallelization over k-points: 16

Number of atoms: 1
Number of atomic orbitals: 9
Number of bands in calculation: 9
Bands to converge: occupied states only
Number of valence electrons: 11

... initialized

Initializing position-dependent things.

Density initialized from atomic densities
Creating initial wave functions:
  9 bands from LCAO basis set

                
                
                
       Au       
                
                
                
                

Positions:
   0 Au     0.000000    0.000000    0.000000    ( 0.0000,  0.0000,  0.0000)

Unit cell:
           periodic     x           y           z      points  spacing
  1. axis:    yes    0.000000    2.005128    2.005128    15     0.1544
  2. axis:    yes    2.005128    0.000000    2.005128    15     0.1544
  3. axis:    yes    2.005128    2.005128    0.000000    15     0.1544

  Lengths:   2.835679   2.835679   2.835679
  Angles:   60.000000  60.000000  60.000000

Effective grid spacing dv^(1/3) = 0.1684

                     log10-error:    total        iterations:
           time      wfs    density  energy       fermi  poisson
iter:   1  21:46:49  +1.64   +inf    -3.284958    3             
iter:   2  21:46:49  -1.88  -1.34    -3.238285    3             
iter:   3  21:46:49  -1.49  -1.36    -3.048709    28            
iter:   4  21:46:50  -2.79  -1.87    -3.011226    3             
iter:   5  21:46:50  -2.64  -2.06    -3.010787    3             
iter:   6  21:46:51  -3.66  -2.32    -3.006248    3             
iter:   7  21:46:51  -4.70  -2.91    -3.006059    3             
iter:   8  21:46:51  -5.26  -3.13    -3.006087    3             
iter:   9  21:46:52  -5.82  -3.55    -3.006067    2             
iter:  10  21:46:52  -7.51  -4.26    -3.006067    2             

Converged after 10 iterations.

Dipole moment: (-0.000000, -0.000000, -0.000000) |e|*Ang

Energy contributions relative to reference atoms: (reference = -516598.271109)

Kinetic:         +1.344200
Potential:       -1.587249
External:        +0.000000
XC:              -2.909131
Entropy (-ST):   -0.008752
Local:           +0.150489
--------------------------
Free energy:     -3.010443
Extrapolated:    -3.006067

Fermi level: 10.99905

Showing only first 2 kpts
 Kpt  Band  Eigenvalues  Occupancy
  0     3      6.03911    0.00694
  0     4      7.49554    0.00694
  0     5      7.63499    0.00694
  0     6     27.00683    0.00000

  1     3      5.96215    0.00231
  1     4      7.59257    0.00231
  1     5      7.59257    0.00231
  1     6     26.83134    0.00000


No gap
System changes: cell 

Initialize ...

Au-setup:
  name: Gold
  id: b12133f335f6ca0d89c4b1ccaa844e9a
  Z: 79
  valence: 11
  core: 68
  charge: 0.0
  file: /apps/Common/software/GPAW-setups/0.9.20000/Au.PBE.gz
  compensation charges: gauss, rc=0.42, lmax=2
  cutoffs: 2.33(filt), 2.81(core),
  valence states:
                energy  radius
    6s(1.00)    -5.728   1.323
    6p(0.00)    -0.775   1.323
    5d(10.00)    -6.891   1.323
    *s          21.484   1.323
    *p          26.436   1.323
    *d          20.321   1.323

  Using partial waves for Au as LCAO basis

Reference energy: -516598.271109

Spin-paired calculation

Occupation numbers:
  Fermi-Dirac: width=0.1000 eV

Convergence criteria:
  Maximum total energy change: 0.0005 eV / electron
  Maximum integral of absolute density change: 0.0001 electrons
  Maximum integral of absolute eigenstate change: 4e-08 eV^2
  Maximum number of iterations: 333

Symmetries present (total): 48

  ( 1  0  0)  ( 1  0  0)  ( 1  0  0)  ( 1  0  0)  ( 1  0 -1)  ( 1  0 -1)
  ( 1  0 -1)  ( 1 -1  0)  ( 0  1  0)  ( 0  0  1)  ( 1  0  0)  ( 1 -1  0)
  ( 1 -1  0)  ( 1  0 -1)  ( 0  0  1)  ( 0  1  0)  ( 1 -1  0)  ( 1  0  0)

  ( 1  0 -1)  ( 1  0 -1)  ( 1 -1  0)  ( 1 -1  0)  ( 1 -1  0)  ( 1 -1  0)
  ( 0  1 -1)  ( 0  0 -1)  ( 1  0  0)  ( 1  0 -1)  ( 0 -1  1)  ( 0 -1  0)
  ( 0  0 -1)  ( 0  1 -1)  ( 1  0 -1)  ( 1  0  0)  ( 0 -1  0)  ( 0 -1  1)

  ( 0  1  0)  ( 0  1  0)  ( 0  1  0)  ( 0  1  0)  ( 0  1 -1)  ( 0  1 -1)
  ( 1  0  0)  ( 0  1 -1)  ( 0  0  1)  (-1  1  0)  ( 1  0 -1)  ( 0  1  0)
  ( 0  0  1)  (-1  1  0)  ( 1  0  0)  ( 0  1 -1)  ( 0  0 -1)  (-1  1  0)

  ( 0  1 -1)  ( 0  1 -1)  ( 0  0  1)  ( 0  0  1)  ( 0  0  1)  ( 0  0  1)
  ( 0  0 -1)  (-1  1  0)  ( 1  0  0)  ( 0  1  0)  ( 0 -1  1)  (-1  0  1)
  ( 1  0 -1)  ( 0  1  0)  ( 0  1  0)  ( 1  0  0)  (-1  0  1)  ( 0 -1  1)

  ( 0  0 -1)  ( 0  0 -1)  ( 0  0 -1)  ( 0  0 -1)  ( 0 -1  1)  ( 0 -1  1)
  ( 1  0 -1)  ( 0  1 -1)  ( 0 -1  0)  (-1  0  0)  ( 1 -1  0)  ( 0  0  1)
  ( 0  1 -1)  ( 1  0 -1)  (-1  0  0)  ( 0 -1  0)  ( 0 -1  0)  (-1  0  1)

  ( 0 -1  1)  ( 0 -1  1)  ( 0 -1  0)  ( 0 -1  0)  ( 0 -1  0)  ( 0 -1  0)
  ( 0 -1  0)  (-1  0  1)  ( 1 -1  0)  ( 0  0 -1)  ( 0 -1  1)  (-1  0  0)
  ( 1 -1  0)  ( 0  0  1)  ( 0 -1  1)  (-1  0  0)  ( 1 -1  0)  ( 0  0 -1)

  (-1  1  0)  (-1  1  0)  (-1  1  0)  (-1  1  0)  (-1  0  1)  (-1  0  1)
  ( 0  1  0)  ( 0  1 -1)  (-1  0  1)  (-1  0  0)  ( 0  0  1)  ( 0 -1  1)
  ( 0  1 -1)  ( 0  1  0)  (-1  0  0)  (-1  0  1)  ( 0 -1  1)  ( 0  0  1)

  (-1  0  1)  (-1  0  1)  (-1  0  0)  (-1  0  0)  (-1  0  0)  (-1  0  0)
  (-1  1  0)  (-1  0  0)  ( 0  0 -1)  ( 0 -1  0)  (-1  1  0)  (-1  0  1)
  (-1  0  0)  (-1  1  0)  ( 0 -1  0)  ( 0  0 -1)  (-1  0  1)  (-1  1  0)
Note: your k-points are not as symmetric as your crystal!

1728 k-points: 12 x 12 x 12 Monkhorst-Pack grid
182 k-points in the irreducible part of the Brillouin zone
       k-points in crystal coordinates                weights
   0:     0.04166667    0.04166667   -0.04166667          6/1728
   1:     0.04166667    0.04166667    0.04166667          2/1728
   2:     0.12500000   -0.04166667   -0.04166667          6/1728
   3:     0.12500000    0.04166667   -0.12500000         12/1728
   4:     0.12500000    0.04166667   -0.04166667         12/1728
   5:     0.12500000    0.04166667    0.04166667          6/1728
   6:     0.12500000    0.12500000   -0.12500000          6/1728
   7:     0.12500000    0.12500000   -0.04166667          6/1728
   8:     0.12500000    0.12500000    0.04166667          6/1728
   9:     0.12500000    0.12500000    0.12500000          2/1728
          ...
 181:     0.45833333    0.45833333    0.45833333          2/1728

Wave functions: Plane wave expansion
  Cutoff energy: 450.000 eV
  Number of coefficients (min, max): 335, 361
  Pulay-stress correction: 0.000000 eV/Ang^3 (de/decut=0.000000)
  Using FFTW library
  ScaLapack parameters: grid=1x1, blocksize=None
  Wavefunction extrapolation:
    Improved wavefunction reuse through dual PAW basis 

Eigensolver
   Davidson(niter=2, smin=None, normalize=True) 

Densities:
  Coarse grid: 15*15*15 grid
  Fine grid: 30*30*30 grid
  Total Charge: 0.000000 

Density mixing:
  Method: separate
  Backend: pulay
  Linear mixing parameter: 0.05
  Mixing with 5 old densities
  Damping of long wave oscillations: 50 

Hamiltonian:
  XC and Coulomb potentials evaluated on a 30*30*30 grid
  Using the PBE Exchange-Correlation functional
 

XC parameters: PBE with 2 nearest neighbor stencil

Memory estimate:
  Process memory now: 139.85 MiB
  Calculator: 3.05 MiB
    Density: 1.32 MiB
      Arrays: 0.67 MiB
      Localized functions: 0.39 MiB
      Mixer: 0.26 MiB
    Hamiltonian: 0.45 MiB
      Arrays: 0.44 MiB
      XC: 0.00 MiB
      Poisson: 0.00 MiB
      vbar: 0.01 MiB
    Wavefunctions: 1.28 MiB
      Arrays psit_nG: 0.55 MiB
      Eigensolver: 0.09 MiB
      Projections: 0.03 MiB
      Projectors: 0.43 MiB
      PW-descriptor: 0.19 MiB

Total number of cores used: 16
Parallelization over k-points: 16

Number of atoms: 1
Number of atomic orbitals: 9
Number of bands in calculation: 9
Bands to converge: occupied states only
Number of valence electrons: 11

... initialized

Initializing position-dependent things.

Density initialized from atomic densities
Creating initial wave functions:
  9 bands from LCAO basis set

                
                
                
       Au       
                
                
                
                

Positions:
   0 Au     0.000000    0.000000    0.000000    ( 0.0000,  0.0000,  0.0000)

Unit cell:
           periodic     x           y           z      points  spacing
  1. axis:    yes    0.000000    2.009362    2.009362    15     0.1547
  2. axis:    yes    2.009362    0.000000    2.009362    15     0.1547
  3. axis:    yes    2.009362    2.009362    0.000000    15     0.1547

  Lengths:   2.841667   2.841667   2.841667
  Angles:   60.000000  60.000000  60.000000

Effective grid spacing dv^(1/3) = 0.1688

                     log10-error:    total        iterations:
           time      wfs    density  energy       fermi  poisson
iter:   1  21:46:55  +1.64   +inf    -3.300007    3             
iter:   2  21:46:56  -1.89  -1.34    -3.252948    3             
iter:   3  21:46:56  -1.49  -1.36    -3.064025    23            
iter:   4  21:46:56  -2.80  -1.87    -3.026110    3             
iter:   5  21:46:57  -2.64  -2.06    -3.025712    3             
iter:   6  21:46:57  -3.65  -2.31    -3.021153    3             
iter:   7  21:46:57  -4.76  -2.92    -3.020975    3             
iter:   8  21:46:58  -5.21  -3.14    -3.020997    3             
iter:   9  21:46:58  -5.80  -3.54    -3.020976    2             
iter:  10  21:46:58  -7.57  -4.22    -3.020976    2             

Converged after 10 iterations.

Dipole moment: (-0.000000, -0.000000, -0.000000) |e|*Ang

Energy contributions relative to reference atoms: (reference = -516598.271109)

Kinetic:         +0.620465
Potential:       -0.966565
External:        +0.000000
XC:              -2.819615
Entropy (-ST):   -0.008755
Local:           +0.149116
--------------------------
Free energy:     -3.025353
Extrapolated:    -3.020976

Fermi level: 10.88107

Showing only first 2 kpts
 Kpt  Band  Eigenvalues  Occupancy
  0     3      5.95959    0.00694
  0     4      7.40012    0.00694
  0     5      7.53787    0.00694
  0     6     26.88276    0.00000

  1     3      5.88339    0.00231
  1     4      7.49591    0.00231
  1     5      7.49591    0.00231
  1     6     26.70854    0.00000


No gap
System changes: cell 

Initialize ...

Au-setup:
  name: Gold
  id: b12133f335f6ca0d89c4b1ccaa844e9a
  Z: 79
  valence: 11
  core: 68
  charge: 0.0
  file: /apps/Common/software/GPAW-setups/0.9.20000/Au.PBE.gz
  compensation charges: gauss, rc=0.42, lmax=2
  cutoffs: 2.33(filt), 2.81(core),
  valence states:
                energy  radius
    6s(1.00)    -5.728   1.323
    6p(0.00)    -0.775   1.323
    5d(10.00)    -6.891   1.323
    *s          21.484   1.323
    *p          26.436   1.323
    *d          20.321   1.323

  Using partial waves for Au as LCAO basis

Reference energy: -516598.271109

Spin-paired calculation

Occupation numbers:
  Fermi-Dirac: width=0.1000 eV

Convergence criteria:
  Maximum total energy change: 0.0005 eV / electron
  Maximum integral of absolute density change: 0.0001 electrons
  Maximum integral of absolute eigenstate change: 4e-08 eV^2
  Maximum number of iterations: 333

Symmetries present (total): 48

  ( 1  0  0)  ( 1  0  0)  ( 1  0  0)  ( 1  0  0)  ( 1  0 -1)  ( 1  0 -1)
  ( 1  0 -1)  ( 1 -1  0)  ( 0  1  0)  ( 0  0  1)  ( 1  0  0)  ( 1 -1  0)
  ( 1 -1  0)  ( 1  0 -1)  ( 0  0  1)  ( 0  1  0)  ( 1 -1  0)  ( 1  0  0)

  ( 1  0 -1)  ( 1  0 -1)  ( 1 -1  0)  ( 1 -1  0)  ( 1 -1  0)  ( 1 -1  0)
  ( 0  1 -1)  ( 0  0 -1)  ( 1  0  0)  ( 1  0 -1)  ( 0 -1  1)  ( 0 -1  0)
  ( 0  0 -1)  ( 0  1 -1)  ( 1  0 -1)  ( 1  0  0)  ( 0 -1  0)  ( 0 -1  1)

  ( 0  1  0)  ( 0  1  0)  ( 0  1  0)  ( 0  1  0)  ( 0  1 -1)  ( 0  1 -1)
  ( 1  0  0)  ( 0  1 -1)  ( 0  0  1)  (-1  1  0)  ( 1  0 -1)  ( 0  1  0)
  ( 0  0  1)  (-1  1  0)  ( 1  0  0)  ( 0  1 -1)  ( 0  0 -1)  (-1  1  0)

  ( 0  1 -1)  ( 0  1 -1)  ( 0  0  1)  ( 0  0  1)  ( 0  0  1)  ( 0  0  1)
  ( 0  0 -1)  (-1  1  0)  ( 1  0  0)  ( 0  1  0)  ( 0 -1  1)  (-1  0  1)
  ( 1  0 -1)  ( 0  1  0)  ( 0  1  0)  ( 1  0  0)  (-1  0  1)  ( 0 -1  1)

  ( 0  0 -1)  ( 0  0 -1)  ( 0  0 -1)  ( 0  0 -1)  ( 0 -1  1)  ( 0 -1  1)
  ( 1  0 -1)  ( 0  1 -1)  ( 0 -1  0)  (-1  0  0)  ( 1 -1  0)  ( 0  0  1)
  ( 0  1 -1)  ( 1  0 -1)  (-1  0  0)  ( 0 -1  0)  ( 0 -1  0)  (-1  0  1)

  ( 0 -1  1)  ( 0 -1  1)  ( 0 -1  0)  ( 0 -1  0)  ( 0 -1  0)  ( 0 -1  0)
  ( 0 -1  0)  (-1  0  1)  ( 1 -1  0)  ( 0  0 -1)  ( 0 -1  1)  (-1  0  0)
  ( 1 -1  0)  ( 0  0  1)  ( 0 -1  1)  (-1  0  0)  ( 1 -1  0)  ( 0  0 -1)

  (-1  1  0)  (-1  1  0)  (-1  1  0)  (-1  1  0)  (-1  0  1)  (-1  0  1)
  ( 0  1  0)  ( 0  1 -1)  (-1  0  1)  (-1  0  0)  ( 0  0  1)  ( 0 -1  1)
  ( 0  1 -1)  ( 0  1  0)  (-1  0  0)  (-1  0  1)  ( 0 -1  1)  ( 0  0  1)

  (-1  0  1)  (-1  0  1)  (-1  0  0)  (-1  0  0)  (-1  0  0)  (-1  0  0)
  (-1  1  0)  (-1  0  0)  ( 0  0 -1)  ( 0 -1  0)  (-1  1  0)  (-1  0  1)
  (-1  0  0)  (-1  1  0)  ( 0 -1  0)  ( 0  0 -1)  (-1  0  1)  (-1  1  0)
Note: your k-points are not as symmetric as your crystal!

[...]

Energy contributions relative to reference atoms: (reference = -516598.271109)

Kinetic:        -15.706616
Potential:      +12.991679
External:        +0.000000
XC:              -0.434398
Entropy (-ST):   -0.009561
Local:           +0.101298
--------------------------
Free energy:     -3.057599
Extrapolated:    -3.052818

Fermi level: 7.13379

Showing only first 2 kpts
 Kpt  Band  Eigenvalues  Occupancy
  0     3      3.35791    0.00694
  0     4      4.31375    0.00694
  0     5      4.40156    0.00694
  0     6     22.70555    0.00000

  1     3      3.30492    0.00231
  1     4      4.37331    0.00231
  1     5      4.37331    0.00231
  1     6     22.65021    0.00000


No gap
System changes: cell 

Initialize ...

Au-setup:
  name: Gold
  id: b12133f335f6ca0d89c4b1ccaa844e9a
  Z: 79
  valence: 11
  core: 68
  charge: 0.0
  file: /apps/Common/software/GPAW-setups/0.9.20000/Au.PBE.gz
  compensation charges: gauss, rc=0.42, lmax=2
  cutoffs: 2.33(filt), 2.81(core),
  valence states:
                energy  radius
    6s(1.00)    -5.728   1.323
    6p(0.00)    -0.775   1.323
    5d(10.00)    -6.891   1.323
    *s          21.484   1.323
    *p          26.436   1.323
    *d          20.321   1.323

  Using partial waves for Au as LCAO basis

Reference energy: -516598.271109

Spin-paired calculation

Occupation numbers:
  Fermi-Dirac: width=0.1000 eV

Convergence criteria:
  Maximum total energy change: 0.0005 eV / electron
  Maximum integral of absolute density change: 0.0001 electrons
  Maximum integral of absolute eigenstate change: 4e-08 eV^2
  Maximum number of iterations: 333

Symmetries present (total): 48

  ( 1  0  0)  ( 1  0  0)  ( 1  0  0)  ( 1  0  0)  ( 1  0 -1)  ( 1  0 -1)
  ( 1  0 -1)  ( 1 -1  0)  ( 0  1  0)  ( 0  0  1)  ( 1  0  0)  ( 1 -1  0)
  ( 1 -1  0)  ( 1  0 -1)  ( 0  0  1)  ( 0  1  0)  ( 1 -1  0)  ( 1  0  0)

  ( 1  0 -1)  ( 1  0 -1)  ( 1 -1  0)  ( 1 -1  0)  ( 1 -1  0)  ( 1 -1  0)
  ( 0  1 -1)  ( 0  0 -1)  ( 1  0  0)  ( 1  0 -1)  ( 0 -1  1)  ( 0 -1  0)
  ( 0  0 -1)  ( 0  1 -1)  ( 1  0 -1)  ( 1  0  0)  ( 0 -1  0)  ( 0 -1  1)

  ( 0  1  0)  ( 0  1  0)  ( 0  1  0)  ( 0  1  0)  ( 0  1 -1)  ( 0  1 -1)
  ( 1  0  0)  ( 0  1 -1)  ( 0  0  1)  (-1  1  0)  ( 1  0 -1)  ( 0  1  0)
  ( 0  0  1)  (-1  1  0)  ( 1  0  0)  ( 0  1 -1)  ( 0  0 -1)  (-1  1  0)

  ( 0  1 -1)  ( 0  1 -1)  ( 0  0  1)  ( 0  0  1)  ( 0  0  1)  ( 0  0  1)
  ( 0  0 -1)  (-1  1  0)  ( 1  0  0)  ( 0  1  0)  ( 0 -1  1)  (-1  0  1)
  ( 1  0 -1)  ( 0  1  0)  ( 0  1  0)  ( 1  0  0)  (-1  0  1)  ( 0 -1  1)

  ( 0  0 -1)  ( 0  0 -1)  ( 0  0 -1)  ( 0  0 -1)  ( 0 -1  1)  ( 0 -1  1)
  ( 1  0 -1)  ( 0  1 -1)  ( 0 -1  0)  (-1  0  0)  ( 1 -1  0)  ( 0  0  1)
  ( 0  1 -1)  ( 1  0 -1)  (-1  0  0)  ( 0 -1  0)  ( 0 -1  0)  (-1  0  1)

  ( 0 -1  1)  ( 0 -1  1)  ( 0 -1  0)  ( 0 -1  0)  ( 0 -1  0)  ( 0 -1  0)
  ( 0 -1  0)  (-1  0  1)  ( 1 -1  0)  ( 0  0 -1)  ( 0 -1  1)  (-1  0  0)
  ( 1 -1  0)  ( 0  0  1)  ( 0 -1  1)  (-1  0  0)  ( 1 -1  0)  ( 0  0 -1)

  (-1  1  0)  (-1  1  0)  (-1  1  0)  (-1  1  0)  (-1  0  1)  (-1  0  1)
  ( 0  1  0)  ( 0  1 -1)  (-1  0  1)  (-1  0  0)  ( 0  0  1)  ( 0 -1  1)
  ( 0  1 -1)  ( 0  1  0)  (-1  0  0)  (-1  0  1)  ( 0 -1  1)  ( 0  0  1)

  (-1  0  1)  (-1  0  1)  (-1  0  0)  (-1  0  0)  (-1  0  0)  (-1  0  0)
  (-1  1  0)  (-1  0  0)  ( 0  0 -1)  ( 0 -1  0)  (-1  1  0)  (-1  0  1)
  (-1  0  0)  (-1  1  0)  ( 0 -1  0)  ( 0  0 -1)  (-1  0  1)  (-1  1  0)
Note: your k-points are not as symmetric as your crystal!

1728 k-points: 12 x 12 x 12 Monkhorst-Pack grid
182 k-points in the irreducible part of the Brillouin zone
       k-points in crystal coordinates                weights
   0:     0.04166667    0.04166667   -0.04166667          6/1728
   1:     0.04166667    0.04166667    0.04166667          2/1728
   2:     0.12500000   -0.04166667   -0.04166667          6/1728
   3:     0.12500000    0.04166667   -0.12500000         12/1728
   4:     0.12500000    0.04166667   -0.04166667         12/1728
   5:     0.12500000    0.04166667    0.04166667          6/1728
   6:     0.12500000    0.12500000   -0.12500000          6/1728
   7:     0.12500000    0.12500000   -0.04166667          6/1728
   8:     0.12500000    0.12500000    0.04166667          6/1728
   9:     0.12500000    0.12500000    0.12500000          2/1728
          ...
 181:     0.45833333    0.45833333    0.45833333          2/1728

Wave functions: Plane wave expansion
  Cutoff energy: 450.000 eV
  Number of coefficients (min, max): 437, 459
  Pulay-stress correction: 0.000000 eV/Ang^3 (de/decut=0.000000)
  Using FFTW library
  ScaLapack parameters: grid=1x1, blocksize=None
  Wavefunction extrapolation:
    Improved wavefunction reuse through dual PAW basis 

Eigensolver
   Davidson(niter=2, smin=None, normalize=True) 

Densities:
  Coarse grid: 16*16*16 grid
  Fine grid: 32*32*32 grid
  Total Charge: 0.000000 

Density mixing:
  Method: separate
  Backend: pulay
  Linear mixing parameter: 0.05
  Mixing with 5 old densities
  Damping of long wave oscillations: 50 

Hamiltonian:
  XC and Coulomb potentials evaluated on a 32*32*32 grid
  Using the PBE Exchange-Correlation functional
 

XC parameters: PBE with 2 nearest neighbor stencil

Memory estimate:
  Process memory now: 152.70 MiB
  Calculator: 3.80 MiB
    Density: 1.63 MiB
      Arrays: 0.81 MiB
      Localized functions: 0.51 MiB
      Mixer: 0.31 MiB
    Hamiltonian: 0.54 MiB
      Arrays: 0.53 MiB
      XC: 0.00 MiB
      Poisson: 0.00 MiB
      vbar: 0.01 MiB
    Wavefunctions: 1.63 MiB
      Arrays psit_nG: 0.69 MiB
      Eigensolver: 0.11 MiB
      Projections: 0.03 MiB
      Projectors: 0.57 MiB
      PW-descriptor: 0.23 MiB

Total number of cores used: 16
Parallelization over k-points: 16

Number of atoms: 1
Number of atomic orbitals: 9
Number of bands in calculation: 9
Bands to converge: occupied states only
Number of valence electrons: 11

... initialized

Initializing position-dependent things.

Density initialized from atomic densities
Creating initial wave functions:
  9 bands from LCAO basis set

                
                
                
       Au       
                
                
                
                

Positions:
   0 Au     0.000000    0.000000    0.000000    ( 0.0000,  0.0000,  0.0000)

Unit cell:
           periodic     x           y           z      points  spacing
  1. axis:    yes    0.000000    2.174515    2.174515    16     0.1569
  2. axis:    yes    2.174515    0.000000    2.174515    16     0.1569
  3. axis:    yes    2.174515    2.174515    0.000000    16     0.1569

  Lengths:   3.075229   3.075229   3.075229
  Angles:   60.000000  60.000000  60.000000

Effective grid spacing dv^(1/3) = 0.1712

                     log10-error:    total        iterations:
           time      wfs    density  energy       fermi  poisson
iter:   1  21:51:13  +1.68   +inf    -3.292089    3             
iter:   2  21:51:13  -2.21  -1.32    -3.240752    3             
iter:   3  21:51:13  -1.43  -1.36    -3.074390    29            
iter:   4  21:51:14  -3.23  -1.91    -3.050095    3             
iter:   5  21:51:14  -2.44  -2.03    -3.051603    3             
iter:   6  21:51:15  -3.32  -2.21    -3.044295    3             
iter:   7  21:51:15  -5.89  -3.14    -3.044352    2             
iter:   8  21:51:16  -4.62  -3.04    -3.044250    2             
iter:   9  21:51:16  -6.23  -3.50    -3.044232    2             
iter:  10  21:51:16  -7.98  -4.01    -3.044233    2             

Converged after 10 iterations.

Dipole moment: (0.000000, -0.000000, 0.000000) |e|*Ang

Energy contributions relative to reference atoms: (reference = -516598.271109)

Kinetic:        -15.896934
Potential:      +13.152042
External:        +0.000000
XC:              -0.394568
Entropy (-ST):   -0.009649
Local:           +0.100052
--------------------------
Free energy:     -3.049057
Extrapolated:    -3.044233

Fermi level: 7.05274

Showing only first 2 kpts
 Kpt  Band  Eigenvalues  Occupancy
  0     3      3.29970    0.00694
  0     4      4.24551    0.00694
  0     5      4.33233    0.00694
  0     6     22.60789    0.00000

  1     3      3.24721    0.00231
  1     4      4.30436    0.00231
  1     5      4.30436    0.00231
  1     6     22.55639    0.00000


No gap
System changes: cell 

Initialize ...

Au-setup:
  name: Gold
  id: b12133f335f6ca0d89c4b1ccaa844e9a
  Z: 79
  valence: 11
  core: 68
  charge: 0.0
  file: /apps/Common/software/GPAW-setups/0.9.20000/Au.PBE.gz
  compensation charges: gauss, rc=0.42, lmax=2
  cutoffs: 2.33(filt), 2.81(core),
  valence states:
                energy  radius
    6s(1.00)    -5.728   1.323
    6p(0.00)    -0.775   1.323
    5d(10.00)    -6.891   1.323
    *s          21.484   1.323
    *p          26.436   1.323
    *d          20.321   1.323

  Using partial waves for Au as LCAO basis

Reference energy: -516598.271109

Spin-paired calculation

Occupation numbers:
  Fermi-Dirac: width=0.1000 eV

Convergence criteria:
  Maximum total energy change: 0.0005 eV / electron
  Maximum integral of absolute density change: 0.0001 electrons
  Maximum integral of absolute eigenstate change: 4e-08 eV^2
  Maximum number of iterations: 333

Symmetries present (total): 48

  ( 1  0  0)  ( 1  0  0)  ( 1  0  0)  ( 1  0  0)  ( 1  0 -1)  ( 1  0 -1)
  ( 1  0 -1)  ( 1 -1  0)  ( 0  1  0)  ( 0  0  1)  ( 1  0  0)  ( 1 -1  0)
  ( 1 -1  0)  ( 1  0 -1)  ( 0  0  1)  ( 0  1  0)  ( 1 -1  0)  ( 1  0  0)

  ( 1  0 -1)  ( 1  0 -1)  ( 1 -1  0)  ( 1 -1  0)  ( 1 -1  0)  ( 1 -1  0)
  ( 0  1 -1)  ( 0  0 -1)  ( 1  0  0)  ( 1  0 -1)  ( 0 -1  1)  ( 0 -1  0)
  ( 0  0 -1)  ( 0  1 -1)  ( 1  0 -1)  ( 1  0  0)  ( 0 -1  0)  ( 0 -1  1)

  ( 0  1  0)  ( 0  1  0)  ( 0  1  0)  ( 0  1  0)  ( 0  1 -1)  ( 0  1 -1)
  ( 1  0  0)  ( 0  1 -1)  ( 0  0  1)  (-1  1  0)  ( 1  0 -1)  ( 0  1  0)
  ( 0  0  1)  (-1  1  0)  ( 1  0  0)  ( 0  1 -1)  ( 0  0 -1)  (-1  1  0)

  ( 0  1 -1)  ( 0  1 -1)  ( 0  0  1)  ( 0  0  1)  ( 0  0  1)  ( 0  0  1)
  ( 0  0 -1)  (-1  1  0)  ( 1  0  0)  ( 0  1  0)  ( 0 -1  1)  (-1  0  1)
  ( 1  0 -1)  ( 0  1  0)  ( 0  1  0)  ( 1  0  0)  (-1  0  1)  ( 0 -1  1)

  ( 0  0 -1)  ( 0  0 -1)  ( 0  0 -1)  ( 0  0 -1)  ( 0 -1  1)  ( 0 -1  1)
  ( 1  0 -1)  ( 0  1 -1)  ( 0 -1  0)  (-1  0  0)  ( 1 -1  0)  ( 0  0  1)
  ( 0  1 -1)  ( 1  0 -1)  (-1  0  0)  ( 0 -1  0)  ( 0 -1  0)  (-1  0  1)

  ( 0 -1  1)  ( 0 -1  1)  ( 0 -1  0)  ( 0 -1  0)  ( 0 -1  0)  ( 0 -1  0)
  ( 0 -1  0)  (-1  0  1)  ( 1 -1  0)  ( 0  0 -1)  ( 0 -1  1)  (-1  0  0)
  ( 1 -1  0)  ( 0  0  1)  ( 0 -1  1)  (-1  0  0)  ( 1 -1  0)  ( 0  0 -1)

  (-1  1  0)  (-1  1  0)  (-1  1  0)  (-1  1  0)  (-1  0  1)  (-1  0  1)
  ( 0  1  0)  ( 0  1 -1)  (-1  0  1)  (-1  0  0)  ( 0  0  1)  ( 0 -1  1)
  ( 0  1 -1)  ( 0  1  0)  (-1  0  0)  (-1  0  1)  ( 0 -1  1)  ( 0  0  1)

  (-1  0  1)  (-1  0  1)  (-1  0  0)  (-1  0  0)  (-1  0  0)  (-1  0  0)
  (-1  1  0)  (-1  0  0)  ( 0  0 -1)  ( 0 -1  0)  (-1  1  0)  (-1  0  1)
  (-1  0  0)  (-1  1  0)  ( 0 -1  0)  ( 0  0 -1)  (-1  0  1)  (-1  1  0)
Note: your k-points are not as symmetric as your crystal!

1728 k-points: 12 x 12 x 12 Monkhorst-Pack grid
182 k-points in the irreducible part of the Brillouin zone
       k-points in crystal coordinates                weights
   0:     0.04166667    0.04166667   -0.04166667          6/1728
   1:     0.04166667    0.04166667    0.04166667          2/1728
   2:     0.12500000   -0.04166667   -0.04166667          6/1728
   3:     0.12500000    0.04166667   -0.12500000         12/1728
   4:     0.12500000    0.04166667   -0.04166667         12/1728
   5:     0.12500000    0.04166667    0.04166667          6/1728
   6:     0.12500000    0.12500000   -0.12500000          6/1728
   7:     0.12500000    0.12500000   -0.04166667          6/1728
   8:     0.12500000    0.12500000    0.04166667          6/1728
   9:     0.12500000    0.12500000    0.12500000          2/1728
          ...
 181:     0.45833333    0.45833333    0.45833333          2/1728

Wave functions: Plane wave expansion
  Cutoff energy: 450.000 eV
  Number of coefficients (min, max): 441, 460
  Pulay-stress correction: 0.000000 eV/Ang^3 (de/decut=0.000000)
  Using FFTW library
  ScaLapack parameters: grid=1x1, blocksize=None
  Wavefunction extrapolation:
    Improved wavefunction reuse through dual PAW basis 

Eigensolver
   Davidson(niter=2, smin=None, normalize=True) 

Densities:
  Coarse grid: 16*16*16 grid
  Fine grid: 32*32*32 grid
  Total Charge: 0.000000 

Density mixing:
  Method: separate
  Backend: pulay
  Linear mixing parameter: 0.05
  Mixing with 5 old densities
  Damping of long wave oscillations: 50 

Hamiltonian:
  XC and Coulomb potentials evaluated on a 32*32*32 grid
  Using the PBE Exchange-Correlation functional
 

XC parameters: PBE with 2 nearest neighbor stencil

Memory estimate:
  Process memory now: 152.70 MiB
  Calculator: 3.81 MiB
    Density: 1.63 MiB
      Arrays: 0.81 MiB
      Localized functions: 0.51 MiB
      Mixer: 0.31 MiB
    Hamiltonian: 0.54 MiB
      Arrays: 0.53 MiB
      XC: 0.00 MiB
      Poisson: 0.00 MiB
      vbar: 0.01 MiB
    Wavefunctions: 1.64 MiB
      Arrays psit_nG: 0.69 MiB
      Eigensolver: 0.11 MiB
      Projections: 0.03 MiB
      Projectors: 0.57 MiB
      PW-descriptor: 0.23 MiB

Total number of cores used: 16
Parallelization over k-points: 16

Number of atoms: 1
Number of atomic orbitals: 9
Number of bands in calculation: 9
Bands to converge: occupied states only
Number of valence electrons: 11

... initialized

Initializing position-dependent things.

Density initialized from atomic densities
Creating initial wave functions:
  9 bands from LCAO basis set

                
                
                
       Au       
                
                
                
                

Positions:
   0 Au     0.000000    0.000000    0.000000    ( 0.0000,  0.0000,  0.0000)

Unit cell:
           periodic     x           y           z      points  spacing
  1. axis:    yes    0.000000    2.178750    2.178750    16     0.1572
  2. axis:    yes    2.178750    0.000000    2.178750    16     0.1572
  3. axis:    yes    2.178750    2.178750    0.000000    16     0.1572

  Lengths:   3.081218   3.081218   3.081218
  Angles:   60.000000  60.000000  60.000000

Effective grid spacing dv^(1/3) = 0.1716

                     log10-error:    total        iterations:
           time      wfs    density  energy       fermi  poisson
iter:   1  21:51:19  +1.68   +inf    -3.281726    3             
iter:   2  21:51:20  -2.22  -1.32    -3.230512    3             
iter:   3  21:51:20  -1.43  -1.36    -3.064906    29            
iter:   4  21:51:20  -3.24  -1.92    -3.041195    3             
iter:   5  21:51:21  -2.43  -2.03    -3.042924    3             
iter:   6  21:51:21  -3.30  -2.20    -3.035426    3             
iter:   7  21:51:22  -5.87  -3.16    -3.035482    2             
iter:   8  21:51:22  -4.66  -3.05    -3.035384    2             
iter:   9  21:51:22  -6.44  -3.56    -3.035371    2             
iter:  10  21:51:23  -8.01  -3.99    -3.035372    2             
iter:  11  21:51:23  -6.07  -3.92    -3.035370    2             
iter:  12  21:51:24  -7.02  -4.02    -3.035369    2             
iter:  13  21:51:24  -7.95  -4.83    -3.035369    2             

Converged after 13 iterations.

Dipole moment: (-0.000000, -0.000000, -0.000000) |e|*Ang

Energy contributions relative to reference atoms: (reference = -516598.271109)

Kinetic:        -15.832782
Potential:      +13.072979
External:        +0.000000
XC:              -0.369635
Entropy (-ST):   -0.009734
Local:           +0.098936
--------------------------
Free energy:     -3.040236
Extrapolated:    -3.035369

Fermi level: 6.97376

Showing only first 2 kpts
 Kpt  Band  Eigenvalues  Occupancy
  0     3      3.24399    0.00694
  0     4      4.18025    0.00694
  0     5      4.26605    0.00694
  0     6     22.50994    0.00000

  1     3      3.19189    0.00231
  1     4      4.23834    0.00231
  1     5      4.23834    0.00231
  1     6     22.45674    0.00000


No gap
Timing:                              incl.     excl.
-----------------------------------------------------------
Hamiltonian:                         9.394     0.029   0.0% |
 Atomic:                             8.107     8.106   2.4% ||
  XC Correction:                     0.000     0.000   0.0% |
 Calculate atomic Hamiltonians:      0.048     0.048   0.0% |
 Communicate:                        0.008     0.008   0.0% |
 Initialize Hamiltonian:             0.007     0.007   0.0% |
 Poisson:                            0.013     0.013   0.0% |
 XC 3D grid:                         1.182     1.182   0.3% |
LCAO initialization:                63.197     4.374   1.3% ||
 LCAO eigensolver:                  14.957     0.041   0.0% |
  Calculate projections:             0.020     0.020   0.0% |
  DenseAtomicCorrection:             0.074     0.074   0.0% |
  Distribute overlap matrix:         0.020     0.020   0.0% |
  Orbital Layouts:                   0.088     0.088   0.0% |
  Potential matrix:                 12.628    12.628   3.7% ||
  Sum over cells:                    2.085     2.085   0.6% |
 LCAO to grid:                      34.797    34.797  10.1% |---|
 Set positions (LCAO WFS):           9.069     1.374   0.4% |
  Basic WFS set positions:           0.166     0.166   0.0% |
  Basis functions set positions:     0.002     0.002   0.0% |
  P tci:                             1.759     1.759   0.5% |
  ST tci:                            4.044     4.044   1.2% |
  mktci:                             1.724     1.724   0.5% |
PWDescriptor:                        0.191     0.191   0.1% |
SCF-cycle:                         194.602    17.929   5.2% |-|
 Davidson:                          76.188    18.512   5.4% |-|
  Apply H:                           8.120     7.085   2.1% ||
   HMM T:                            1.035     1.035   0.3% |
  Subspace diag:                    13.484     0.806   0.2% |
   calc_h_matrix:                   10.199     2.029   0.6% |
    Apply H:                         8.170     7.102   2.1% ||
     HMM T:                          1.068     1.068   0.3% |
   diagonalize:                      1.533     1.533   0.4% |
   rotate_psi:                       0.946     0.946   0.3% |
  calc. matrices:                   29.627    13.415   3.9% |-|
   Apply H:                         16.212    14.120   4.1% |-|
    HMM T:                           2.092     2.092   0.6% |
  diagonalize:                       5.027     5.027   1.5% ||
  rotate_psi:                        1.417     1.417   0.4% |
 Density:                           14.396     0.016   0.0% |
  Atomic density matrices:           1.039     1.039   0.3% |
  Mix:                               1.362     1.362   0.4% |
  Multipole moments:                 0.085     0.085   0.0% |
  Pseudo density:                   11.894     3.174   0.9% |
   Symmetrize density:               8.720     8.720   2.5% ||
 Hamiltonian:                       85.499     0.272   0.1% |
  Atomic:                           73.531    73.528  21.3% |--------|
   XC Correction:                    0.003     0.003   0.0% |
  Calculate atomic Hamiltonians:     0.484     0.484   0.1% |
  Communicate:                       0.076     0.076   0.0% |
  Poisson:                           0.126     0.126   0.0% |
  XC 3D grid:                       11.010    11.010   3.2% ||
 Orthonormalize:                     0.590     0.079   0.0% |
  calc_s_matrix:                     0.145     0.145   0.0% |
  inverse-cholesky:                  0.162     0.162   0.0% |
  projections:                       0.161     0.161   0.0% |
  rotate_psi_s:                      0.043     0.043   0.0% |
Set symmetry:                       11.604    11.604   3.4% ||
Other:                              65.639    65.639  19.0% |-------|
-----------------------------------------------------------
Total:                                       344.626 100.0%

Memory usage: 152.70 MiB
Date: Fri Feb 25 21:51:33 2022
