
  ___ ___ ___ _ _ _  
 |   |   |_  | | | | 
 | | | | | . | | | | 
 |__ |  _|___|_____|  19.8.1
 |___|_|             

User:   ermag@vera44-4
Date:   Fri Mar 11 17:06:03 2022
Arch:   x86_64
Pid:    2673
Python: 3.7.2
gpaw:   /apps/Vera/software/GPAW/19.8.1-intel-2019a-Python-3.7.2/lib/python3.7/site-packages/gpaw
_gpaw:  /apps/Vera/software/GPAW/19.8.1-intel-2019a-Python-3.7.2/bin/
        gpaw-python
ase:    /apps/Vera/software/ASE/3.18.0-intel-2019a-Python-3.7.2/lib/python3.7/site-packages/ase (version 3.18.0)
numpy:  /apps/Vera/software/SciPy-bundle/2019.03-intel-2019a/lib/python3.7/site-packages/numpy (version 1.16.2)
scipy:  /apps/Vera/software/SciPy-bundle/2019.03-intel-2019a/lib/python3.7/site-packages/scipy (version 1.2.1)
libxc:  4.3.4
units:  Angstrom and eV
cores:  64

Input parameters:
  kpts: [4 4 1]
  mode: {ecut: 450.00000000000006,
         gammacentered: False,
         name: pw}
  xc: PBE

Memory usage: 573.04 MiB
Date: Fri Mar 11 18:27:42 2022
harges, initial_magmoms 

Initialize ...

Rh-setup:
  name: Rhodium
  id: 4e1d209aee696a641de1ffa1459b299f
  Z: 45
  valence: 15
  core: 30
  charge: 0.0
  file: /apps/Common/software/GPAW-setups/0.9.20000/Rh.PBE.gz
  compensation charges: gauss, rc=0.38, lmax=2
  cutoffs: 2.48(filt), 2.35(core),
  valence states:
                energy  radius
    5s(1.00)    -4.297   1.270
    4p(6.00)   -50.429   1.381
    5p(0.00)    -0.852   1.381
    4d(8.00)    -5.942   1.244
    *s          22.915   1.270
    *d          21.270   1.244

  Using partial waves for Rh as LCAO basis

O-setup:
  name: Oxygen
  id: 32ecd46bf208036f09c70b0ec9a88b78
  Z: 8
  valence: 6
  core: 2
  charge: 0.0
  file: /apps/Common/software/GPAW-setups/0.9.20000/O.PBE.gz
  compensation charges: gauss, rc=0.21, lmax=2
  cutoffs: 1.17(filt), 0.83(core),
  valence states:
                energy  radius
    2s(2.00)   -23.961   0.688
    2p(4.00)    -9.029   0.598
    *s           3.251   0.688
    *p          18.182   0.598
    *d           0.000   0.619

  Using partial waves for O as LCAO basis

Reference energy: -3515676.321306

Spin-paired calculation

Occupation numbers:
  Fermi-Dirac: width=0.1000 eV

Convergence criteria:
  Maximum total energy change: 0.0005 eV / electron
  Maximum integral of absolute density change: 0.0001 electrons
  Maximum integral of absolute eigenstate change: 4e-08 eV^2
  Maximum number of iterations: 333

Symmetries present (total): 1

  ( 1  0  0)
  ( 0  1  0)
  ( 0  0  1)

16 k-points: 4 x 4 x 1 Monkhorst-Pack grid
8 k-points in the irreducible part of the Brillouin zone
       k-points in crystal coordinates                weights
   0:     0.12500000   -0.37500000    0.00000000          2/16
   1:     0.12500000   -0.12500000    0.00000000          2/16
   2:     0.12500000    0.12500000    0.00000000          2/16
   3:     0.12500000    0.37500000    0.00000000          2/16
   4:     0.37500000   -0.37500000    0.00000000          2/16
   5:     0.37500000   -0.12500000    0.00000000          2/16
   6:     0.37500000    0.12500000    0.00000000          2/16
   7:     0.37500000    0.37500000    0.00000000          2/16

Wave functions: Plane wave expansion
  Cutoff energy: 450.000 eV
  Number of coefficients (min, max): 20454, 20528
  Pulay-stress correction: 0.000000 eV/Ang^3 (de/decut=0.000000)
  Using FFTW library
  ScaLapack parameters: grid=1x1, blocksize=None
  Wavefunction extrapolation:
    Improved wavefunction reuse through dual PAW basis 

Eigensolver
   Davidson(niter=2, smin=None, normalize=True) 

Densities:
  Coarse grid: 40*40*81 grid
  Fine grid: 80*80*162 grid
  Total Charge: 0.000000 

Density mixing:
  Method: separate
  Backend: pulay
  Linear mixing parameter: 0.05
  Mixing with 5 old densities
  Damping of long wave oscillations: 50 

Hamiltonian:
  XC and Coulomb potentials evaluated on a 80*80*162 grid
  Using the PBE Exchange-Correlation functional
 

XC parameters: PBE with 2 nearest neighbor stencil

Memory estimate:
  Process memory now: 488.44 MiB
  Calculator: 184.26 MiB
    Density: 7.94 MiB
      Arrays: 3.26 MiB
      Localized functions: 3.40 MiB
      Mixer: 1.28 MiB
    Hamiltonian: 2.21 MiB
      Arrays: 2.13 MiB
      XC: 0.00 MiB
      Poisson: 0.00 MiB
      vbar: 0.08 MiB
    Wavefunctions: 174.11 MiB
      Arrays psit_nG: 78.62 MiB
      Eigensolver: 89.81 MiB
      Projections: 0.24 MiB
      Projectors: 0.39 MiB
      PW-descriptor: 5.05 MiB

Total number of cores used: 64
Parallelization over k-points: 8
Domain decomposition: 1 x 2 x 4

Number of atoms: 28
Number of atomic orbitals: 328
Number of bands in calculation: 251
Bands to converge: occupied states only
Number of valence electrons: 411

... initialized

Initializing position-dependent things.

Density initialized from atomic densities
Creating initial wave functions:
  251 bands from LCAO basis set

                                           
                                           
                                           
                                           
                                           
                      O                    
                                           
                Rh     Rh     Rh           
            Rh    Rh     Rh                
                 Rh     Rh     Rh          
       Rh    RRh   RRh    Rh               
                                           
        Rh     Rh   RRh    Rh    Rh        
                Rh    Rh     Rh            
                                           
           Rh    Rh     Rh                 
                                           
                                           
                                           
                                           

Positions:
   0 Rh     1.357586    0.783802    6.055383    ( 0.0000,  0.0000,  0.0000)
   1 Rh     4.072935    0.783784    6.055303    ( 0.0000,  0.0000,  0.0000)
   2 Rh     6.788284    0.783802    6.055383    ( 0.0000,  0.0000,  0.0000)
   3 Rh     2.715245    3.135373    6.055303    ( 0.0000,  0.0000,  0.0000)
   4 Rh     5.430626    3.135373    6.055303    ( 0.0000,  0.0000,  0.0000)
   5 Rh     8.145870    3.135339    6.055275    ( 0.0000,  0.0000,  0.0000)
   6 Rh     4.072935    5.486926    6.055383    ( 0.0000,  0.0000,  0.0000)
   7 Rh     6.788219    5.486861    6.055275    ( 0.0000,  0.0000,  0.0000)
   8 Rh     9.503522    5.486861    6.055275    ( 0.0000,  0.0000,  0.0000)
   9 Rh    -0.000000    1.567525    8.217220    ( 0.0000,  0.0000,  0.0000)
  10 Rh     2.715169    1.567604    8.217207    ( 0.0000,  0.0000,  0.0000)
  11 Rh     5.430701    1.567604    8.217207    ( 0.0000,  0.0000,  0.0000)
  12 Rh     1.357614    3.919201    8.217120    ( 0.0000,  0.0000,  0.0000)
  13 Rh     4.072935    3.919323    8.217207    ( 0.0000,  0.0000,  0.0000)
  14 Rh     6.788256    3.919201    8.217120    ( 0.0000,  0.0000,  0.0000)
  15 Rh     2.715419    6.270768    8.217220    ( 0.0000,  0.0000,  0.0000)
  16 Rh     5.430451    6.270768    8.217220    ( 0.0000,  0.0000,  0.0000)
  17 Rh     8.145870    6.270658    8.217120    ( 0.0000,  0.0000,  0.0000)
  18 Rh    -0.000000   -0.000000   10.378433    ( 0.0000,  0.0000,  0.0000)
  19 Rh     2.715258   -0.000034   10.378534    ( 0.0000,  0.0000,  0.0000)
  20 Rh     5.430612   -0.000034   10.378534    ( 0.0000,  0.0000,  0.0000)
  21 Rh     1.357600    2.351500   10.378534    ( 0.0000,  0.0000,  0.0000)
  22 Rh     4.072935    2.351510   10.378585    ( 0.0000,  0.0000,  0.0000)
  23 Rh     6.788271    2.351500   10.378534    ( 0.0000,  0.0000,  0.0000)
  24 Rh     2.715276    4.703065   10.378534    ( 0.0000,  0.0000,  0.0000)
  25 Rh     5.430594    4.703065   10.378534    ( 0.0000,  0.0000,  0.0000)
  26 Rh     8.145870    4.703020   10.378533    ( 0.0000,  0.0000,  0.0000)
  27 O      5.372935    3.251510   12.378585    ( 0.0000,  0.0000,  0.0000)

Unit cell:
           periodic     x           y           z      points  spacing
  1. axis:    yes    8.145870    0.000000    0.000000    40     0.1764
  2. axis:    yes    4.072935    7.054530    0.000000    40     0.1764
  3. axis:    no     0.000000    0.000000   16.434050    81     0.2029

  Lengths:   8.145870   8.145870  16.434050
  Angles:   90.000000  90.000000  60.000000

Effective grid spacing dv^(1/3) = 0.1939

                     log10-error:    total        iterations:
           time      wfs    density  energy       fermi  poisson
iter:   1  18:01:18  +0.27   +inf  -203.229316    3             
iter:   2  18:01:23  -1.33  -1.34  -199.390782    4             
iter:   3  18:01:27  -1.44  -1.36  -193.486941    36            
iter:   4  18:01:32  -1.88  -1.48  -195.965924    4             
iter:   5  18:01:36  -1.85  -1.43  -196.773594    3             
iter:   6  18:01:41  -1.07  -1.43  -187.660515    32            
iter:   7  18:01:45  -2.44  -2.06  -187.547584    3             
iter:   8  18:01:50  -3.01  -2.10  -187.472771    3             
iter:   9  18:01:54  -3.26  -2.16  -187.414969    3             
iter:  10  18:01:59  -2.91  -2.20  -187.700557    3             
iter:  11  18:02:03  -3.09  -2.12  -187.331736    3             
iter:  12  18:02:07  -3.82  -2.49  -187.322851    3             
iter:  13  18:02:12  -3.54  -2.56  -187.291793    3             
iter:  14  18:02:16  -3.96  -2.89  -187.293396    3             
iter:  15  18:02:21  -4.61  -3.08  -187.289714    3             
iter:  16  18:02:25  -4.91  -3.23  -187.290205    2             
iter:  17  18:02:30  -4.79  -3.34  -187.291581    3             
iter:  18  18:02:34  -5.17  -3.43  -187.291531    2             
iter:  19  18:02:39  -5.64  -3.60  -187.291626    2             
iter:  20  18:02:43  -5.39  -3.68  -187.291563    3             
iter:  21  18:02:48  -5.96  -3.80  -187.291544    2             
iter:  22  18:02:53  -6.47  -3.91  -187.291440    2             
iter:  23  18:02:57  -6.60  -3.98  -187.291349    2             
iter:  24  18:03:02  -7.32  -4.24  -187.291346    2             
iter:  25  18:03:06  -6.78  -4.24  -187.291308    2             
iter:  26  18:03:11  -7.04  -4.39  -187.291296    2             
iter:  27  18:03:15  -6.99  -4.40  -187.291299    2             
iter:  28  18:03:20  -7.71  -4.62  -187.291313    2             

Converged after 28 iterations.

Dipole moment: (-0.040632, -0.051867, -0.607745) |e|*Ang

Energy contributions relative to reference atoms: (reference = -3515676.321306)

Kinetic:       -165.182749
Potential:      +87.463184
External:        +0.000000
XC:            -106.649152
Entropy (-ST):   -1.570958
Local:           -2.137117
--------------------------
Free energy:   -188.076792
Extrapolated:  -187.291313

Fermi level: 1.43214

Showing only first 2 kpts
 Kpt  Band  Eigenvalues  Occupancy
  0   203      1.29401    0.19980
  0   204      1.37701    0.15861
  0   205      1.42703    0.12819
  0   206      1.53346    0.06659

  1   203      1.36458    0.16569
  1   204      1.41229    0.13737
  1   205      1.42939    0.12672
  1   206      1.45087    0.11333


No gap

Forces in eV/Ang:
  0 Rh   -0.00635    0.03608   -0.29500
  1 Rh   -0.03089    0.02418    0.02739
  2 Rh    0.03200    0.02037    0.01824
  3 Rh    0.00365   -0.03921    0.02753
  4 Rh   -0.00266    0.00104    0.03710
  5 Rh    0.00024   -0.03990    0.02193
  6 Rh    0.03596    0.01749    0.02464
  7 Rh   -0.03844    0.01759    0.02870
  8 Rh    0.00373   -0.00385    0.05724
  9 Rh   -0.07379    0.03888    0.24126
 10 Rh    0.08653    0.03569    0.25294
 11 Rh   -0.00792   -0.01109   -0.04608
 12 Rh    0.00193    0.03277    0.04293
 13 Rh   -0.00513    0.01786   -0.07605
 14 Rh    0.00169    0.02584   -0.06645
 15 Rh   -0.02291   -0.01681    0.03731
 16 Rh    0.00804   -0.10345    0.24251
 17 Rh    0.02204   -0.01348    0.03679
 18 Rh   -0.00275    0.00048   -0.08631
 19 Rh    0.00383   -0.00587   -0.08879
 20 Rh    0.00029   -0.15510   -0.05781
 21 Rh   -0.00586   -0.00036   -0.08847
 22 Rh    0.44154    0.35715    1.17296
 23 Rh   -0.40435    0.27673    1.02246
 24 Rh   -0.15186    0.07538   -0.04872
 25 Rh   -0.05098   -0.66269    1.41965
 26 Rh    0.14825    0.07408   -0.05071
 27 O     0.01341   -0.00005   -3.79999

System changes: positions 

Initializing position-dependent things.

Density initialized from wave functions
                                           
                                           
                                           
                                           
                                           
                      O                    
                                           
                Rh     Rh     Rh           
            Rh    Rh     Rh                
                 Rh     Rh     Rh          
       Rh    RRh   RRh    Rh               
                                           
        Rh     Rh   RRh    Rh    Rh        
                Rh    Rh     Rh            
                                           
           Rh    Rh     Rh                 
                                           
                                           
                                           
                                           

Positions:
   0 Rh     1.357519    0.784182    6.052277    ( 0.0000,  0.0000,  0.0000)
   1 Rh     4.072610    0.784039    6.055591    ( 0.0000,  0.0000,  0.0000)
   2 Rh     6.788621    0.784017    6.055575    ( 0.0000,  0.0000,  0.0000)
   3 Rh     2.715283    3.134960    6.055592    ( 0.0000,  0.0000,  0.0000)
   4 Rh     5.430598    3.135384    6.055693    ( 0.0000,  0.0000,  0.0000)
   5 Rh     8.145873    3.134919    6.055506    ( 0.0000,  0.0000,  0.0000)
   6 Rh     4.073314    5.487110    6.055642    ( 0.0000,  0.0000,  0.0000)
   7 Rh     6.787814    5.487046    6.055577    ( 0.0000,  0.0000,  0.0000)
   8 Rh     9.503561    5.486820    6.055877    ( 0.0000,  0.0000,  0.0000)
   9 Rh    -0.000777    1.567934    8.219759    ( 0.0000,  0.0000,  0.0000)
  10 Rh     2.716080    1.567979    8.219869    ( 0.0000,  0.0000,  0.0000)
  11 Rh     5.430617    1.567487    8.216722    ( 0.0000,  0.0000,  0.0000)
  12 Rh     1.357634    3.919546    8.217571    ( 0.0000,  0.0000,  0.0000)
  13 Rh     4.072881    3.919511    8.216406    ( 0.0000,  0.0000,  0.0000)
  14 Rh     6.788274    3.919473    8.216420    ( 0.0000,  0.0000,  0.0000)
  15 Rh     2.715178    6.270591    8.217612    ( 0.0000,  0.0000,  0.0000)
  16 Rh     5.430536    6.269679    8.219773    ( 0.0000,  0.0000,  0.0000)
  17 Rh     8.146102    6.270516    8.217507    ( 0.0000,  0.0000,  0.0000)
  18 Rh    -0.000029    0.000005   10.377524    ( 0.0000,  0.0000,  0.0000)
  19 Rh     2.715299   -0.000096   10.377600    ( 0.0000,  0.0000,  0.0000)
  20 Rh     5.430615   -0.001667   10.377926    ( 0.0000,  0.0000,  0.0000)
  21 Rh     1.357538    2.351496   10.377603    ( 0.0000,  0.0000,  0.0000)
  22 Rh     4.077583    2.355270   10.390932    ( 0.0000,  0.0000,  0.0000)
  23 Rh     6.784014    2.354413   10.389297    ( 0.0000,  0.0000,  0.0000)
  24 Rh     2.713678    4.703858   10.378021    ( 0.0000,  0.0000,  0.0000)
  25 Rh     5.430057    4.696089   10.393478    ( 0.0000,  0.0000,  0.0000)
  26 Rh     8.147431    4.703800   10.377999    ( 0.0000,  0.0000,  0.0000)
  27 O      5.373076    3.251510   12.338585    ( 0.0000,  0.0000,  0.0000)

Unit cell:
           periodic     x           y           z      points  spacing
  1. axis:    yes    8.145870    0.000000    0.000000    40     0.1764
  2. axis:    yes    4.072935    7.054530    0.000000    40     0.1764
  3. axis:    no     0.000000    0.000000   16.434050    81     0.2029

  Lengths:   8.145870   8.145870  16.434050
  Angles:   90.000000  90.000000  60.000000

Effective grid spacing dv^(1/3) = 0.1939

                     log10-error:    total        iterations:
           time      wfs    density  energy       fermi  poisson
iter:   1  18:03:27  -3.09   +inf  -187.812033    3             
iter:   2  18:03:31  -2.72  -2.29  -188.806961    3             
iter:   3  18:03:35  -2.76  -1.97  -188.148933    3             
iter:   4  18:03:40  -3.72  -2.12  -187.508314    3             
iter:   5  18:03:44  -4.90  -3.12  -187.505635    3             
iter:   6  18:03:49  -5.11  -3.27  -187.503875    2             
iter:   7  18:03:53  -4.77  -3.39  -187.502161    2             
iter:   8  18:03:58  -5.09  -3.42  -187.500801    2             
iter:   9  18:04:02  -5.63  -3.73  -187.501291    2             
iter:  10  18:04:07  -6.15  -3.59  -187.500639    2             
iter:  11  18:04:11  -6.61  -3.88  -187.500630    2             
iter:  12  18:04:16  -5.86  -4.01  -187.500628    2             
iter:  13  18:04:20  -7.23  -4.22  -187.500612    2             
iter:  14  18:04:25  -7.25  -4.32  -187.500600    2             
iter:  15  18:04:29  -7.66  -4.45  -187.500589    2             

Converged after 15 iterations.

Dipole moment: (0.066194, 0.008700, -0.572358) |e|*Ang

Energy contributions relative to reference atoms: (reference = -3515676.321306)

Kinetic:       -165.832495
Potential:      +87.923007
External:        +0.000000
XC:            -106.659192
Entropy (-ST):   -1.573503
Local:           -2.145157
--------------------------
Free energy:   -188.287341
Extrapolated:  -187.500589

Fermi level: 1.44461

Showing only first 2 kpts
 Kpt  Band  Eigenvalues  Occupancy
  0   203      1.30611    0.19995
  0   204      1.38885    0.15897
  0   205      1.43937    0.12827
  0   206      1.54656    0.06628

  1   203      1.37599    0.16628
  1   204      1.42691    0.13603
  1   205      1.44214    0.12655
  1   206      1.46449    0.11262


No gap

Forces in eV/Ang:
  0 Rh   -0.00663    0.03590   -0.25091
  1 Rh   -0.03214    0.02211    0.02751
  2 Rh    0.03300    0.01941    0.01944
  3 Rh    0.00137   -0.03988    0.02851
  4 Rh   -0.00236    0.00096    0.02557
  5 Rh    0.00188   -0.04026    0.02278
  6 Rh    0.03603    0.02017    0.02470
  7 Rh   -0.03752    0.02049    0.02750
  8 Rh    0.00340   -0.00329    0.04646
  9 Rh   -0.07649    0.04043    0.23107
 10 Rh    0.09085    0.03943    0.24411
 11 Rh   -0.00913    0.01010   -0.01336
 12 Rh    0.00170    0.01851    0.02843
 13 Rh    0.01468    0.00840   -0.03721
 14 Rh   -0.01948    0.01688   -0.02824
 15 Rh   -0.01193   -0.00981    0.02324
 16 Rh    0.00693   -0.11114    0.23572
 17 Rh    0.01143   -0.00701    0.02340
 18 Rh   -0.00422   -0.00573   -0.05425
 19 Rh    0.00622   -0.01095   -0.05562
 20 Rh   -0.00048   -0.14664   -0.03860
 21 Rh   -0.00455    0.00296   -0.05669
 22 Rh    0.39541    0.32233    1.08709
 23 Rh   -0.35890    0.24704    0.94537
 24 Rh   -0.15026    0.07533   -0.03296
 25 Rh   -0.04659   -0.59706    1.31699
 26 Rh    0.14280    0.07273   -0.03380
 27 O     0.01414   -0.00167   -3.67323

System changes: positions 

Initializing position-dependent things.

Density initialized from wave functions
                                           
                                           
                                           
                                           
                                           
                      O                    
                                           
                Rh     Rh     Rh           
            Rh    Rh     Rh                
                 Rh     Rh     Rh          
       Rh    RRh   RRh    Rh               
                                           
        Rh     Rh   RRh    Rh    Rh        
                Rh    Rh     Rh            
                                           
           Rh    Rh     Rh                 
                                           
                                           
                                           
                                           

Positions:
   0 Rh     1.357445    0.784577    6.049662    ( 0.0000,  0.0000,  0.0000)
   1 Rh     4.072252    0.784275    6.055894    ( 0.0000,  0.0000,  0.0000)
   2 Rh     6.788988    0.784227    6.055792    ( 0.0000,  0.0000,  0.0000)
   3 Rh     2.715291    3.134519    6.055909    ( 0.0000,  0.0000,  0.0000)
   4 Rh     5.430573    3.135394    6.055936    ( 0.0000,  0.0000,  0.0000)
   5 Rh     8.145899    3.134475    6.055759    ( 0.0000,  0.0000,  0.0000)
   6 Rh     4.073710    5.487340    6.055914    ( 0.0000,  0.0000,  0.0000)
   7 Rh     6.787404    5.487281    6.055875    ( 0.0000,  0.0000,  0.0000)
   8 Rh     9.503597    5.486786    6.056353    ( 0.0000,  0.0000,  0.0000)
   9 Rh    -0.001627    1.568384    8.222268    ( 0.0000,  0.0000,  0.0000)
  10 Rh     2.717094    1.568426    8.222526    ( 0.0000,  0.0000,  0.0000)
  11 Rh     5.430513    1.567668    8.216683    ( 0.0000,  0.0000,  0.0000)
  12 Rh     1.357652    3.919703    8.217836    ( 0.0000,  0.0000,  0.0000)
  13 Rh     4.073108    3.919572    8.216125    ( 0.0000,  0.0000,  0.0000)
  14 Rh     6.787990    3.919630    8.216235    ( 0.0000,  0.0000,  0.0000)
  15 Rh     2.715083    6.270506    8.217822    ( 0.0000,  0.0000,  0.0000)
  16 Rh     5.430608    6.268431    8.222344    ( 0.0000,  0.0000,  0.0000)
  17 Rh     8.146193    6.270460    8.217720    ( 0.0000,  0.0000,  0.0000)
  18 Rh    -0.000080   -0.000078   10.377033    ( 0.0000,  0.0000,  0.0000)
  19 Rh     2.715375   -0.000233   10.377097    ( 0.0000,  0.0000,  0.0000)
  20 Rh     5.430607   -0.003253   10.377564    ( 0.0000,  0.0000,  0.0000)
  21 Rh     1.357492    2.351540   10.377084    ( 0.0000,  0.0000,  0.0000)
  22 Rh     4.081781    2.358702   10.402610    ( 0.0000,  0.0000,  0.0000)
  23 Rh     6.780215    2.357033   10.399445    ( 0.0000,  0.0000,  0.0000)
  24 Rh     2.712030    4.704687   10.377711    ( 0.0000,  0.0000,  0.0000)
  25 Rh     5.429559    4.689736   10.407631    ( 0.0000,  0.0000,  0.0000)
  26 Rh     8.148984    4.704596   10.377683    ( 0.0000,  0.0000,  0.0000)
  27 O      5.373234    3.251486   12.298586    ( 0.0000,  0.0000,  0.0000)

Unit cell:
           periodic     x           y           z      points  spacing
  1. axis:    yes    8.145870    0.000000    0.000000    40     0.1764
  2. axis:    yes    4.072935    7.054530    0.000000    40     0.1764
  3. axis:    no     0.000000    0.000000   16.434050    81     0.2029

  Lengths:   8.145870   8.145870  16.434050
  Angles:   90.000000  90.000000  60.000000

Effective grid spacing dv^(1/3) = 0.1939

                     log10-error:    total        iterations:
           time      wfs    density  energy       fermi  poisson
iter:   1  18:04:36  -3.06   +inf  -188.147614    3             
iter:   2  18:04:41  -2.51  -2.19  -190.039609    3             
iter:   3  18:04:45  -2.64  -1.85  -188.256764    3             
iter:   4  18:04:49  -3.85  -2.15  -187.708801    3             
iter:   5  18:04:54  -4.89  -3.07  -187.705147    3             
iter:   6  18:04:58  -5.14  -3.23  -187.703174    2             
iter:   7  18:05:03  -5.15  -3.39  -187.702077    2             
iter:   8  18:05:07  -4.86  -3.36  -187.699924    2             
iter:   9  18:05:12  -5.37  -3.77  -187.700155    2             
iter:  10  18:05:16  -6.10  -3.65  -187.699720    2             
iter:  11  18:05:21  -6.75  -3.90  -187.699706    2             
iter:  12  18:05:25  -5.88  -4.02  -187.699718    2             
iter:  13  18:05:29  -7.03  -4.20  -187.699702    2             
iter:  14  18:05:34  -7.48  -4.34  -187.699690    2             

Converged after 14 iterations.

Dipole moment: (0.180350, 0.075216, -0.536737) |e|*Ang

Energy contributions relative to reference atoms: (reference = -3515676.321306)

Kinetic:       -166.401587
Potential:      +88.292285
External:        +0.000000
XC:            -106.666649
Entropy (-ST):   -1.576603
Local:           -2.135438
--------------------------
Free energy:   -188.487992
Extrapolated:  -187.699690

Fermi level: 1.45764

Showing only first 2 kpts
 Kpt  Band  Eigenvalues  Occupancy
  0   203      1.31915    0.19995
  0   204      1.40129    0.15931
  0   205      1.45215    0.12843
  0   206      1.56031    0.06593

  1   203      1.38837    0.16664
  1   204      1.44186    0.13484
  1   205      1.45543    0.12638
  1   206      1.47867    0.11190


No gap

Forces in eV/Ang:
  0 Rh   -0.00691    0.03592   -0.20982
  1 Rh   -0.03297    0.02134    0.03627
  2 Rh    0.03350    0.01939    0.02890
  3 Rh    0.00027   -0.04067    0.03807
  4 Rh   -0.00232    0.00111    0.02698
  5 Rh    0.00246   -0.04071    0.03209
  6 Rh    0.03660    0.02163    0.03370
  7 Rh   -0.03736    0.02211    0.03548
  8 Rh    0.00309   -0.00292    0.04669
  9 Rh   -0.07518    0.03965    0.22719
 10 Rh    0.09035    0.03996    0.24009
 11 Rh   -0.00957    0.02165    0.00914
 12 Rh    0.00132    0.00919    0.02477
 13 Rh    0.02460    0.00312   -0.01124
 14 Rh   -0.03052    0.01136   -0.00242
 15 Rh   -0.00515   -0.00507    0.01989
 16 Rh    0.00624   -0.11121    0.23130
 17 Rh    0.00472   -0.00280    0.02047
 18 Rh   -0.00593   -0.01029   -0.03125
 19 Rh    0.00856   -0.01481   -0.03140
 20 Rh   -0.00112   -0.14020   -0.02525
 21 Rh   -0.00372    0.00551   -0.03447
 22 Rh    0.36474    0.29829    1.02216
 23 Rh   -0.32959    0.22753    0.88797
 24 Rh   -0.14808    0.07465   -0.02096
 25 Rh   -0.04293   -0.54899    1.23676
 26 Rh    0.13819    0.07143   -0.02146
 27 O     0.01512   -0.00537   -3.65819

System changes: positions 

Initializing position-dependent things.

Density initialized from wave functions
                                           
                                           
                                           
                                           
                                           
                      O                    
                                           
                Rh     Rh     Rh           
            Rh    Rh     Rh                
                 Rh     Rh     Rh          
       Rh    RRh   RRh    Rh               
                                           
        Rh     Rh   RRh    Rh    Rh        
                Rh    Rh     Rh            
                                           
           Rh    Rh     Rh                 
                                           
                                           
                                           
                                           

Positions:
   0 Rh     1.357367    0.784973    6.047569    ( 0.0000,  0.0000,  0.0000)
   1 Rh     4.071883    0.784503    6.056316    ( 0.0000,  0.0000,  0.0000)
   2 Rh     6.789362    0.784439    6.056137    ( 0.0000,  0.0000,  0.0000)
   3 Rh     2.715284    3.134066    6.056355    ( 0.0000,  0.0000,  0.0000)
   4 Rh     5.430548    3.135407    6.056204    ( 0.0000,  0.0000,  0.0000)
   5 Rh     8.145932    3.134023    6.056138    ( 0.0000,  0.0000,  0.0000)
   6 Rh     4.074116    5.487591    6.056307    ( 0.0000,  0.0000,  0.0000)
   7 Rh     6.786995    5.487537    6.056283    ( 0.0000,  0.0000,  0.0000)
   8 Rh     9.503630    5.486756    6.056838    ( 0.0000,  0.0000,  0.0000)
   9 Rh    -0.002462    1.568824    8.224739    ( 0.0000,  0.0000,  0.0000)
  10 Rh     2.718103    1.568879    8.225143    ( 0.0000,  0.0000,  0.0000)
  11 Rh     5.430403    1.567996    8.216931    ( 0.0000,  0.0000,  0.0000)
  12 Rh     1.357665    3.919741    8.218059    ( 0.0000,  0.0000,  0.0000)
  13 Rh     4.073460    3.919567    8.216174    ( 0.0000,  0.0000,  0.0000)
  14 Rh     6.787565    3.919716    8.216380    ( 0.0000,  0.0000,  0.0000)
  15 Rh     2.715074    6.270482    8.217993    ( 0.0000,  0.0000,  0.0000)
  16 Rh     5.430673    6.267180    8.224868    ( 0.0000,  0.0000,  0.0000)
  17 Rh     8.146198    6.270458    8.217901    ( 0.0000,  0.0000,  0.0000)
  18 Rh    -0.000154   -0.000221   10.376835    ( 0.0000,  0.0000,  0.0000)
  19 Rh     2.715482   -0.000421   10.376903    ( 0.0000,  0.0000,  0.0000)
  20 Rh     5.430591   -0.004761   10.377373    ( 0.0000,  0.0000,  0.0000)
  21 Rh     1.357457    2.351616   10.376848    ( 0.0000,  0.0000,  0.0000)
  22 Rh     4.085604    2.361838   10.413498    ( 0.0000,  0.0000,  0.0000)
  23 Rh     6.776776    2.359414   10.408894    ( 0.0000,  0.0000,  0.0000)
  24 Rh     2.710404    4.705510   10.377553    ( 0.0000,  0.0000,  0.0000)
  25 Rh     5.429106    4.683976   10.420804    ( 0.0000,  0.0000,  0.0000)
  26 Rh     8.150484    4.705378   10.377524    ( 0.0000,  0.0000,  0.0000)
  27 O      5.373406    3.251413   12.258586    ( 0.0000,  0.0000,  0.0000)

Unit cell:
           periodic     x           y           z      points  spacing
  1. axis:    yes    8.145870    0.000000    0.000000    40     0.1764
  2. axis:    yes    4.072935    7.054530    0.000000    40     0.1764
  3. axis:    no     0.000000    0.000000   16.434050    81     0.2029

  Lengths:   8.145870   8.145870  16.434050
  Angles:   90.000000  90.000000  60.000000

Effective grid spacing dv^(1/3) = 0.1939

                     log10-error:    total        iterations:
           time      wfs    density  energy       fermi  poisson
iter:   1  18:05:41  -3.12   +inf  -188.222576    3             
iter:   2  18:05:45  -2.69  -2.28  -189.332567    3             
iter:   3  18:05:50  -2.77  -1.95  -188.441764    3             
iter:   4  18:05:54  -3.81  -2.15  -187.900414    3             
iter:   5  18:05:59  -4.90  -3.11  -187.897106    3             
iter:   6  18:06:03  -5.21  -3.28  -187.895457    2             
iter:   7  18:06:07  -5.43  -3.41  -187.894550    2             
iter:   8  18:06:12  -4.78  -3.39  -187.892413    2             
iter:   9  18:06:16  -5.45  -3.84  -187.892410    2             
iter:  10  18:06:21  -6.32  -3.86  -187.892314    2             
iter:  11  18:06:25  -6.77  -3.94  -187.892307    2             
iter:  12  18:06:30  -5.95  -4.07  -187.892314    2             
iter:  13  18:06:34  -7.22  -4.34  -187.892317    2             
iter:  14  18:06:39  -7.35  -4.34  -187.892298    2             
iter:  15  18:06:43  -7.91  -4.49  -187.892290    2             

Converged after 15 iterations.

Dipole moment: (0.297395, 0.145106, -0.498738) |e|*Ang

Energy contributions relative to reference atoms: (reference = -3515676.321306)

Kinetic:       -166.850453
Potential:      +88.592548
External:        +0.000000
XC:            -106.707333
Entropy (-ST):   -1.580057
Local:           -2.137022
--------------------------
Free energy:   -188.682318
Extrapolated:  -187.892290

Fermi level: 1.47109

Showing only first 2 kpts
 Kpt  Band  Eigenvalues  Occupancy
  0   203      1.33298    0.19980
  0   204      1.41426    0.15959
  0   205      1.46530    0.12862
  0   206      1.57454    0.06555

  1   203      1.40160    0.16677
  1   204      1.45688    0.13387
  1   205      1.46907    0.12627
  1   206      1.49359    0.11100


No gap

Forces in eV/Ang:
  0 Rh   -0.00722    0.03617   -0.18204
  1 Rh   -0.03400    0.02111    0.04111
  2 Rh    0.03427    0.01968    0.03415
  3 Rh   -0.00045   -0.04168    0.04353
  4 Rh   -0.00230    0.00146    0.02758
  5 Rh    0.00290   -0.04140    0.03724
  6 Rh    0.03760    0.02291    0.03894
  7 Rh   -0.03769    0.02354    0.03992
  8 Rh    0.00288   -0.00265    0.04327
  9 Rh   -0.07386    0.03865    0.22715
 10 Rh    0.08966    0.03980    0.23945
 11 Rh   -0.00988    0.02734    0.02243
 12 Rh    0.00098    0.00050    0.02308
 13 Rh    0.02919    0.00109    0.00372
 14 Rh   -0.03606    0.00902    0.01282
 15 Rh    0.00182   -0.00061    0.01882
 16 Rh    0.00589   -0.11029    0.22949
 17 Rh   -0.00227    0.00127    0.01991
 18 Rh   -0.00406   -0.01270   -0.02511
 19 Rh    0.00759   -0.01669   -0.02425
 20 Rh   -0.00192   -0.13543   -0.02551
 21 Rh   -0.00290    0.00349   -0.02905
 22 Rh    0.33131    0.27251    0.95404
 23 Rh   -0.29884    0.20711    0.82807
 24 Rh   -0.14625    0.07470   -0.02175
 25 Rh   -0.03913   -0.49381    1.15029
 26 Rh    0.13435    0.07129   -0.02232
 27 O     0.01766   -0.01645   -3.74484

System changes: positions 

Initializing position-dependent things.

Density initialized from wave functions
                                           
                                           
                                           
                                           
                                           
                      O                    
                                           
                Rh     Rh     Rh           
            Rh   RRh    RRh    Rh          
       Rh     Rh    Rh                     
             Rh    Rh     Rh               
        Rh     Rh   RRh    Rh    Rh        
                                           
                Rh    Rh     Rh            
           Rh    Rh     Rh                 
                                           
                                           
                                           
                                           

Positions:
   0 Rh     1.357292    0.785388    6.044673    ( 0.0000,  0.0000,  0.0000)
   1 Rh     4.071516    0.784749    6.056646    ( 0.0000,  0.0000,  0.0000)
   2 Rh     6.789740    0.784654    6.056376    ( 0.0000,  0.0000,  0.0000)
   3 Rh     2.715295    3.133611    6.056696    ( 0.0000,  0.0000,  0.0000)
   4 Rh     5.430521    3.135410    6.056467    ( 0.0000,  0.0000,  0.0000)
   5 Rh     8.145957    3.133561    6.056415    ( 0.0000,  0.0000,  0.0000)
   6 Rh     4.074521    5.487826    6.056597    ( 0.0000,  0.0000,  0.0000)
   7 Rh     6.786569    5.487775    6.056606    ( 0.0000,  0.0000,  0.0000)
   8 Rh     9.503669    5.486718    6.057443    ( 0.0000,  0.0000,  0.0000)
   9 Rh    -0.003387    1.569321    8.227354    ( 0.0000,  0.0000,  0.0000)
  10 Rh     2.719199    1.569370    8.227931    ( 0.0000,  0.0000,  0.0000)
  11 Rh     5.430292    1.568222    8.216890    ( 0.0000,  0.0000,  0.0000)
  12 Rh     1.357688    3.919998    8.218327    ( 0.0000,  0.0000,  0.0000)
  13 Rh     4.073740    3.919601    8.215885    ( 0.0000,  0.0000,  0.0000)
  14 Rh     6.787233    3.919856    8.216184    ( 0.0000,  0.0000,  0.0000)
  15 Rh     2.714889    6.270344    8.218188    ( 0.0000,  0.0000,  0.0000)
  16 Rh     5.430748    6.265818    8.227592    ( 0.0000,  0.0000,  0.0000)
  17 Rh     8.146381    6.270354    8.218093    ( 0.0000,  0.0000,  0.0000)
  18 Rh    -0.000290   -0.000318   10.376521    ( 0.0000,  0.0000,  0.0000)
  19 Rh     2.715630   -0.000579   10.376569    ( 0.0000,  0.0000,  0.0000)
  20 Rh     5.430595   -0.006482   10.377217    ( 0.0000,  0.0000,  0.0000)
  21 Rh     1.357399    2.351762   10.376511    ( 0.0000,  0.0000,  0.0000)
  22 Rh     4.090520    2.365830   10.426813    ( 0.0000,  0.0000,  0.0000)
  23 Rh     6.772340    2.362463   10.420468    ( 0.0000,  0.0000,  0.0000)
  24 Rh     2.708628    4.706383   10.377444    ( 0.0000,  0.0000,  0.0000)
  25 Rh     5.428528    4.676433   10.437026    ( 0.0000,  0.0000,  0.0000)
  26 Rh     8.152175    4.706210   10.377417    ( 0.0000,  0.0000,  0.0000)
  27 O      5.373519    3.251640   12.218587    ( 0.0000,  0.0000,  0.0000)

Unit cell:
           periodic     x           y           z      points  spacing
  1. axis:    yes    8.145870    0.000000    0.000000    40     0.1764
  2. axis:    yes    4.072935    7.054530    0.000000    40     0.1764
  3. axis:    no     0.000000    0.000000   16.434050    81     0.2029

  Lengths:   8.145870   8.145870  16.434050
  Angles:   90.000000  90.000000  60.000000

Effective grid spacing dv^(1/3) = 0.1939

                     log10-error:    total        iterations:
           time      wfs    density  energy       fermi  poisson
iter:   1  18:06:50  -2.97   +inf  -188.567730    3             
iter:   2  18:06:54  -2.50  -2.19  -190.383708    3             
iter:   3  18:06:59  -2.64  -1.85  -188.636735    3             
iter:   4  18:07:03  -3.84  -2.15  -188.102601    3             
iter:   5  18:07:08  -4.79  -3.03  -188.097459    3             
iter:   6  18:07:12  -5.09  -3.19  -188.094985    2             
iter:   7  18:07:17  -5.40  -3.35  -188.093786    2             
iter:   8  18:07:21  -4.69  -3.36  -188.091140    2             
iter:   9  18:07:26  -5.21  -3.76  -188.091091    2             
iter:  10  18:07:30  -6.08  -3.74  -188.090922    2             
iter:  11  18:07:34  -6.64  -3.84  -188.090890    2             
iter:  12  18:07:39  -5.80  -3.98  -188.090895    2             
iter:  13  18:07:43  -6.98  -4.24  -188.090897    2             
iter:  14  18:07:48  -7.21  -4.29  -188.090875    2             
iter:  15  18:07:53  -7.79  -4.44  -188.090870    2             

Converged after 15 iterations.

Dipole moment: (0.423255, 0.215901, -0.460143) |e|*Ang

Energy contributions relative to reference atoms: (reference = -3515676.321306)

Kinetic:       -167.156287
Potential:      +88.754595
External:        +0.000000
XC:            -106.758908
Entropy (-ST):   -1.584732
Local:           -2.137904
--------------------------
Free energy:   -188.883236
Extrapolated:  -188.090870

Fermi level: 1.48470

Showing only first 2 kpts
 Kpt  Band  Eigenvalues  Occupancy
  0   203      1.34753    0.19941
  0   204      1.42737    0.15988
  0   205      1.47860    0.12881
  0   206      1.58864    0.06531

  1   203      1.41535    0.16668
  1   204      1.47229    0.13274
  1   205      1.48289    0.12613
  1   206      1.50891    0.10994


No gap

Forces in eV/Ang:
  0 Rh   -0.00747    0.03623   -0.14243
  1 Rh   -0.03521    0.02015    0.04716
  2 Rh    0.03517    0.01939    0.04074
  3 Rh   -0.00206   -0.04279    0.05022
  4 Rh   -0.00227    0.00163    0.02636
  5 Rh    0.00413   -0.04206    0.04361
  6 Rh    0.03826    0.02477    0.04524
  7 Rh   -0.03740    0.02557    0.04518
  8 Rh    0.00261   -0.00226    0.03774
  9 Rh   -0.07387    0.03851    0.22410
 10 Rh    0.09004    0.04090    0.23467
 11 Rh   -0.01031    0.03771    0.04350
 12 Rh    0.00058   -0.01250    0.02005
 13 Rh    0.03812   -0.00359    0.02757
 14 Rh   -0.04616    0.00403    0.03709
 15 Rh    0.01202    0.00603    0.01673
 16 Rh    0.00510   -0.10998    0.22206
 17 Rh   -0.01232    0.00733    0.01846
 18 Rh   -0.00331   -0.01719   -0.00722
 19 Rh    0.00795   -0.02041   -0.00461
 20 Rh   -0.00295   -0.12991   -0.01775
 21 Rh   -0.00183    0.00310   -0.01206
 22 Rh    0.26710    0.22406    0.85834
 23 Rh   -0.24126    0.16914    0.74607
 24 Rh   -0.14548    0.07542   -0.01509
 25 Rh   -0.03255   -0.38861    1.02379
 26 Rh    0.13037    0.07149   -0.01570
 27 O     0.02201   -0.03586   -3.65828

System changes: positions 

Initializing position-dependent things.

Density initialized from wave functions
                                           
                                           
                                           
                                           
                                           
                      O                    
                                           
                Rh     Rh     Rh           
            Rh   RRh    RRh    Rh          
       Rh     Rh    Rh                     
             Rh    Rh     Rh               
        Rh     Rh   RRh    Rh    Rh        
                                           
                Rh    Rh     Rh            
           Rh    Rh     Rh                 
                                           
                                           
                                           
                                           

Positions:
   0 Rh     1.357214    0.785837    6.041391    ( 0.0000,  0.0000,  0.0000)
   1 Rh     4.071122    0.785008    6.056977    ( 0.0000,  0.0000,  0.0000)
   2 Rh     6.790148    0.784878    6.056606    ( 0.0000,  0.0000,  0.0000)
   3 Rh     2.715299    3.133120    6.057032    ( 0.0000,  0.0000,  0.0000)
   4 Rh     5.430492    3.135406    6.056719    ( 0.0000,  0.0000,  0.0000)
   5 Rh     8.145994    3.133061    6.056685    ( 0.0000,  0.0000,  0.0000)
   6 Rh     4.074948    5.488080    6.056877    ( 0.0000,  0.0000,  0.0000)
   7 Rh     6.786116    5.488030    6.056928    ( 0.0000,  0.0000,  0.0000)
   8 Rh     9.503714    5.486675    6.058115    ( 0.0000,  0.0000,  0.0000)
   9 Rh    -0.004441    1.569893    8.230171    ( 0.0000,  0.0000,  0.0000)
  10 Rh     2.720428    1.569933    8.230929    ( 0.0000,  0.0000,  0.0000)
  11 Rh     5.430172    1.568493    8.216835    ( 0.0000,  0.0000,  0.0000)
  12 Rh     1.357715    3.920305    8.218613    ( 0.0000,  0.0000,  0.0000)
  13 Rh     4.074076    3.919613    8.215561    ( 0.0000,  0.0000,  0.0000)
  14 Rh     6.786846    3.919989    8.215960    ( 0.0000,  0.0000,  0.0000)
  15 Rh     2.714661    6.270180    8.218393    ( 0.0000,  0.0000,  0.0000)
  16 Rh     5.430828    6.264299    8.230508    ( 0.0000,  0.0000,  0.0000)
  17 Rh     8.146609    6.270228    8.218291    ( 0.0000,  0.0000,  0.0000)
  18 Rh    -0.000483   -0.000434   10.376322    ( 0.0000,  0.0000,  0.0000)
  19 Rh     2.715829   -0.000764   10.376347    ( 0.0000,  0.0000,  0.0000)
  20 Rh     5.430605   -0.008411   10.377197    ( 0.0000,  0.0000,  0.0000)
  21 Rh     1.357330    2.351977   10.376293    ( 0.0000,  0.0000,  0.0000)
  22 Rh     4.095794    2.370135   10.441752    ( 0.0000,  0.0000,  0.0000)
  23 Rh     6.767561    2.365754   10.433490    ( 0.0000,  0.0000,  0.0000)
  24 Rh     2.706639    4.707351   10.377470    ( 0.0000,  0.0000,  0.0000)
  25 Rh     5.427895    4.668339   10.455164    ( 0.0000,  0.0000,  0.0000)
  26 Rh     8.154072    4.707131   10.377448    ( 0.0000,  0.0000,  0.0000)
  27 O      5.373642    3.251887   12.178588    ( 0.0000,  0.0000,  0.0000)

Unit cell:
           periodic     x           y           z      points  spacing
  1. axis:    yes    8.145870    0.000000    0.000000    40     0.1764
  2. axis:    yes    4.072935    7.054530    0.000000    40     0.1764
  3. axis:    no     0.000000    0.000000   16.434050    81     0.2029

  Lengths:   8.145870   8.145870  16.434050
  Angles:   90.000000  90.000000  60.000000

Effective grid spacing dv^(1/3) = 0.1939

                     log10-error:    total        iterations:
           time      wfs    density  energy       fermi  poisson
iter:   1  18:07:59  -2.90   +inf  -188.818961    3             
iter:   2  18:08:04  -2.44  -2.17  -190.841288    3             
iter:   3  18:08:08  -2.61  -1.83  -188.824858    3             
iter:   4  18:08:13  -3.84  -2.15  -188.294897    3             
iter:   5  18:08:17  -4.69  -3.00  -188.288154    3             
iter:   6  18:08:22  -5.04  -3.15  -188.285147    2             
iter:   7  18:08:26  -5.38  -3.32  -188.283743    2             
iter:   8  18:08:31  -4.65  -3.36  -188.280856    3             
iter:   9  18:08:35  -5.09  -3.72  -188.280715    2             
iter:  10  18:08:40  -5.98  -3.72  -188.280569    2             
iter:  11  18:08:44  -6.54  -3.78  -188.280505    2             
iter:  12  18:08:48  -5.82  -3.94  -188.280504    2             
iter:  13  18:08:53  -6.75  -4.21  -188.280521    2             
iter:  14  18:08:57  -7.17  -4.27  -188.280496    1             
iter:  15  18:09:02  -7.78  -4.41  -188.280493    2             

Converged after 15 iterations.

Dipole moment: (0.566064, 0.295316, -0.421222) |e|*Ang

Energy contributions relative to reference atoms: (reference = -3515676.321306)

Kinetic:       -167.231484
Potential:      +88.719770
External:        +0.000000
XC:            -106.834135
Entropy (-ST):   -1.590513
Local:           -2.139388
--------------------------
Free energy:   -189.075750
Extrapolated:  -188.280493

Fermi level: 1.49896

Showing only first 2 kpts
 Kpt  Band  Eigenvalues  Occupancy
  0   203      1.36329    0.19881
  0   204      1.44117    0.16014
  0   205      1.49245    0.12907
  0   206      1.60330    0.06512

  1   203      1.43079    0.16603
  1   204      1.48832    0.13164
  1   205      1.49746    0.12593
  1   206      1.52503    0.10880


No gap

Forces in eV/Ang:
  0 Rh   -0.00766    0.03607   -0.09665
  1 Rh   -0.03695    0.01906    0.05593
  2 Rh    0.03656    0.01895    0.05007
  3 Rh   -0.00417   -0.04442    0.05954
  4 Rh   -0.00225    0.00176    0.02710
  5 Rh    0.00588   -0.04310    0.05267
  6 Rh    0.03907    0.02710    0.05431
  7 Rh   -0.03712    0.02803    0.05317
  8 Rh    0.00228   -0.00185    0.03330
  9 Rh   -0.07236    0.03759    0.21931
 10 Rh    0.08828    0.04097    0.22695
 11 Rh   -0.01059    0.04813    0.06716
 12 Rh    0.00007   -0.02768    0.01793
 13 Rh    0.04696   -0.00847    0.05403
 14 Rh   -0.05610   -0.00134    0.06399
 15 Rh    0.02403    0.01383    0.01593
 16 Rh    0.00430   -0.10584    0.21016
 17 Rh   -0.02417    0.01443    0.01840
 18 Rh   -0.00226   -0.02204    0.01080
 19 Rh    0.00816   -0.02439    0.01558
 20 Rh   -0.00422   -0.12203   -0.01025
 21 Rh   -0.00061    0.00224    0.00511
 22 Rh    0.18216    0.15994    0.73926
 23 Rh   -0.16758    0.12030    0.64622
 24 Rh   -0.14282    0.07541   -0.00876
 25 Rh   -0.02395   -0.24451    0.86090
 26 Rh    0.12409    0.07103   -0.00948
 27 O     0.02947   -0.06837   -3.41841

System changes: positions 

Initializing position-dependent things.

Density initialized from wave functions
                                           
                                           
                                           
                                           
                                           
                      O                    
                       Rh                  
                Rh            Rh           
            Rh   RRh    RRh    Rh          
       Rh     Rh    Rh                     
             Rh    Rh     Rh               
        Rh     Rh   RRh    Rh    Rh        
                                           
                Rh    Rh     Rh            
           Rh    Rh     Rh                 
                                           
                                           
                                           
                                           

Positions:
   0 Rh     1.357126    0.786329    6.038309    ( 0.0000,  0.0000,  0.0000)
   1 Rh     4.070666    0.785280    6.057452    ( 0.0000,  0.0000,  0.0000)
   2 Rh     6.790616    0.785117    6.056975    ( 0.0000,  0.0000,  0.0000)
   3 Rh     2.715276    3.132559    6.057518    ( 0.0000,  0.0000,  0.0000)
   4 Rh     5.430459    3.135402    6.057009    ( 0.0000,  0.0000,  0.0000)
   5 Rh     8.146057    3.132497    6.057094    ( 0.0000,  0.0000,  0.0000)
   6 Rh     4.075427    5.488388    6.057297    ( 0.0000,  0.0000,  0.0000)
   7 Rh     6.785621    5.488340    6.057383    ( 0.0000,  0.0000,  0.0000)
   8 Rh     9.503759    5.486632    6.058810    ( 0.0000,  0.0000,  0.0000)
   9 Rh    -0.005585    1.570514    8.233211    ( 0.0000,  0.0000,  0.0000)
  10 Rh     2.721759    1.570554    8.234124    ( 0.0000,  0.0000,  0.0000)
  11 Rh     5.430038    1.568913    8.217055    ( 0.0000,  0.0000,  0.0000)
  12 Rh     1.357739    3.920462    8.218912    ( 0.0000,  0.0000,  0.0000)
  13 Rh     4.074550    3.919567    8.215516    ( 0.0000,  0.0000,  0.0000)
  14 Rh     6.786305    3.920069    8.216031    ( 0.0000,  0.0000,  0.0000)
  15 Rh     2.714553    6.270092    8.218618    ( 0.0000,  0.0000,  0.0000)
  16 Rh     5.430906    6.262685    8.233554    ( 0.0000,  0.0000,  0.0000)
  17 Rh     8.146718    6.270173    8.218518    ( 0.0000,  0.0000,  0.0000)
  18 Rh    -0.000689   -0.000622   10.376332    ( 0.0000,  0.0000,  0.0000)
  19 Rh     2.716055   -0.001018   10.376361    ( 0.0000,  0.0000,  0.0000)
  20 Rh     5.430601   -0.010446   10.377284    ( 0.0000,  0.0000,  0.0000)
  21 Rh     1.357268    2.352209   10.376272    ( 0.0000,  0.0000,  0.0000)
  22 Rh     4.100495    2.374042   10.456792    ( 0.0000,  0.0000,  0.0000)
  23 Rh     6.763246    2.368751   10.446667    ( 0.0000,  0.0000,  0.0000)
  24 Rh     2.704476    4.708420   10.377593    ( 0.0000,  0.0000,  0.0000)
  25 Rh     5.427308    4.661321   10.473161    ( 0.0000,  0.0000,  0.0000)
  26 Rh     8.156092    4.708140   10.377574    ( 0.0000,  0.0000,  0.0000)
  27 O      5.373880    3.251714   12.138589    ( 0.0000,  0.0000,  0.0000)

Unit cell:
           periodic     x           y           z      points  spacing
  1. axis:    yes    8.145870    0.000000    0.000000    40     0.1764
  2. axis:    yes    4.072935    7.054530    0.000000    40     0.1764
  3. axis:    no     0.000000    0.000000   16.434050    81     0.2029

  Lengths:   8.145870   8.145870  16.434050
  Angles:   90.000000  90.000000  60.000000

Effective grid spacing dv^(1/3) = 0.1939

                     log10-error:    total        iterations:
           time      wfs    density  energy       fermi  poisson
iter:   1  18:09:09  -2.89   +inf  -188.971880    3             
iter:   2  18:09:13  -2.46  -2.18  -190.862164    3             
iter:   3  18:09:18  -2.64  -1.85  -188.955298    3             
iter:   4  18:09:22  -3.87  -2.17  -188.464306    3             
iter:   5  18:09:27  -4.63  -2.98  -188.456375    3             
iter:   6  18:09:32  -5.06  -3.16  -188.453423    2             
iter:   7  18:09:36  -5.38  -3.33  -188.451954    2             
iter:   8  18:09:41  -4.66  -3.38  -188.449172    3             
iter:   9  18:09:45  -5.09  -3.73  -188.448944    2             
iter:  10  18:09:50  -5.99  -3.76  -188.448893    2             
iter:  11  18:09:54  -6.52  -3.76  -188.448808    2             
iter:  12  18:09:59  -5.94  -3.94  -188.448807    2             
iter:  13  18:10:04  -6.60  -4.20  -188.448842    2             
iter:  14  18:10:08  -7.17  -4.27  -188.448814    2             
iter:  15  18:10:13  -7.79  -4.42  -188.448813    2             

Converged after 15 iterations.

Dipole moment: (0.725402, 0.387374, -0.382733) |e|*Ang

Energy contributions relative to reference atoms: (reference = -3515676.321306)

Kinetic:       -166.960672
Potential:      +88.402284
External:        +0.000000
XC:            -106.952222
Entropy (-ST):   -1.596902
Local:           -2.139752
--------------------------
Free energy:   -189.247264
Extrapolated:  -188.448813

Fermi level: 1.51354

Showing only first 2 kpts
 Kpt  Band  Eigenvalues  Occupancy
  0   203      1.37976    0.19803
  0   204      1.45544    0.16032
  0   205      1.50643    0.12944
  0   206      1.61838    0.06488

  1   203      1.44817    0.16446
  1   204      1.50443    0.13069
  1   205      1.51257    0.12560
  1   206      1.54145    0.10767


No gap

Forces in eV/Ang:
  0 Rh   -0.00770    0.03532   -0.05345
  1 Rh   -0.03819    0.01812    0.06483
  2 Rh    0.03743    0.01853    0.05952
  3 Rh   -0.00595   -0.04564    0.06884
  4 Rh   -0.00225    0.00190    0.02832
  5 Rh    0.00731   -0.04362    0.06195
  6 Rh    0.03960    0.02885    0.06350
  7 Rh   -0.03653    0.02982    0.06147
  8 Rh    0.00195   -0.00141    0.02976
  9 Rh   -0.06834    0.03550    0.21067
 10 Rh    0.08298    0.03915    0.21432
 11 Rh   -0.01047    0.05506    0.08667
 12 Rh   -0.00050   -0.04105    0.01658
 13 Rh    0.05201   -0.01187    0.07539
 14 Rh   -0.06204   -0.00560    0.08569
 15 Rh    0.03453    0.02076    0.01597
 16 Rh    0.00363   -0.09600    0.19232
 17 Rh   -0.03450    0.02059    0.01895
 18 Rh   -0.00128   -0.02611    0.02653
 19 Rh    0.00817   -0.02751    0.03338
 20 Rh   -0.00539   -0.11262   -0.00362
 21 Rh    0.00055    0.00134    0.02042
 22 Rh    0.08964    0.09008    0.60834
 23 Rh   -0.09131    0.06939    0.54021
 24 Rh   -0.13807    0.07425   -0.00349
 25 Rh   -0.01461   -0.07952    0.67439
 26 Rh    0.11623    0.06957   -0.00425
 27 O     0.04136   -0.11609   -3.07571

System changes: positions 

Initializing position-dependent things.

Density initialized from wave functions
                                           
                                           
                                           
                                           
                                           
                      O                    
                       Rh                  
                Rh            Rh           
            Rh   RRh    RRh    Rh          
       Rh     Rh    Rh                     
             Rh    Rh     Rh               
        Rh     Rh   RRh    Rh    Rh        
                                           
                Rh    Rh     Rh            
           Rh    Rh     Rh                 
                                           
                                           
                                           
                                           

Positions:
   0 Rh     1.357026    0.786866    6.035704    ( 0.0000,  0.0000,  0.0000)
   1 Rh     4.070135    0.785568    6.058146    ( 0.0000,  0.0000,  0.0000)
   2 Rh     6.791154    0.785379    6.057562    ( 0.0000,  0.0000,  0.0000)
   3 Rh     2.715220    3.131910    6.058235    ( 0.0000,  0.0000,  0.0000)
   4 Rh     5.430423    3.135403    6.057363    ( 0.0000,  0.0000,  0.0000)
   5 Rh     8.146152    3.131858    6.057724    ( 0.0000,  0.0000,  0.0000)
   6 Rh     4.075975    5.488764    6.057939    ( 0.0000,  0.0000,  0.0000)
   7 Rh     6.785078    5.488720    6.058045    ( 0.0000,  0.0000,  0.0000)
   8 Rh     9.503803    5.486593    6.059507    ( 0.0000,  0.0000,  0.0000)
   9 Rh    -0.006782    1.571163    8.236463    ( 0.0000,  0.0000,  0.0000)
  10 Rh     2.723145    1.571211    8.237481    ( 0.0000,  0.0000,  0.0000)
  11 Rh     5.429890    1.569503    8.217660    ( 0.0000,  0.0000,  0.0000)
  12 Rh     1.357755    3.920381    8.219223    ( 0.0000,  0.0000,  0.0000)
  13 Rh     4.075164    3.919459    8.215859    ( 0.0000,  0.0000,  0.0000)
  14 Rh     6.785597    3.920085    8.216512    ( 0.0000,  0.0000,  0.0000)
  15 Rh     2.714637    6.270128    8.218874    ( 0.0000,  0.0000,  0.0000)
  16 Rh     5.430981    6.261061    8.236656    ( 0.0000,  0.0000,  0.0000)
  17 Rh     8.146640    6.270231    8.218786    ( 0.0000,  0.0000,  0.0000)
  18 Rh    -0.000884   -0.000903   10.376586    ( 0.0000,  0.0000,  0.0000)
  19 Rh     2.716295   -0.001354   10.376656    ( 0.0000,  0.0000,  0.0000)
  20 Rh     5.430573   -0.012534   10.377449    ( 0.0000,  0.0000,  0.0000)
  21 Rh     1.357221    2.352432   10.376481    ( 0.0000,  0.0000,  0.0000)
  22 Rh     4.104090    2.377151   10.471047    ( 0.0000,  0.0000,  0.0000)
  23 Rh     6.759810    2.371174   10.459289    ( 0.0000,  0.0000,  0.0000)
  24 Rh     2.702161    4.709589   10.377778    ( 0.0000,  0.0000,  0.0000)
  25 Rh     5.426823    4.656410   10.489720    ( 0.0000,  0.0000,  0.0000)
  26 Rh     8.158188    4.709239   10.377760    ( 0.0000,  0.0000,  0.0000)
  27 O      5.374347    3.250701   12.098604    ( 0.0000,  0.0000,  0.0000)

Unit cell:
           periodic     x           y           z      points  spacing
  1. axis:    yes    8.145870    0.000000    0.000000    40     0.1764
  2. axis:    yes    4.072935    7.054530    0.000000    40     0.1764
  3. axis:    no     0.000000    0.000000   16.434050    81     0.2029

  Lengths:   8.145870   8.145870  16.434050
  Angles:   90.000000  90.000000  60.000000

Effective grid spacing dv^(1/3) = 0.1939

                     log10-error:    total        iterations:
           time      wfs    density  energy       fermi  poisson
iter:   1  18:10:20  -2.91   +inf  -189.093911    3             
iter:   2  18:10:24  -2.47  -2.18  -190.940682    3             
iter:   3  18:10:29  -2.67  -1.85  -189.017498    3             
iter:   4  18:10:33  -3.94  -2.21  -188.607749    3             
iter:   5  18:10:38  -4.58  -2.98  -188.598766    3             
iter:   6  18:10:42  -5.11  -3.17  -188.596133    2             
iter:   7  18:10:47  -5.42  -3.35  -188.594711    2             
iter:   8  18:10:51  -4.69  -3.42  -188.592202    3             
iter:   9  18:10:56  -5.15  -3.76  -188.591898    2             
iter:  10  18:11:00  -6.09  -3.86  -188.591916    2             
iter:  11  18:11:05  -6.55  -3.83  -188.591873    2             
iter:  12  18:11:09  -6.00  -3.96  -188.591886    2             
iter:  13  18:11:14  -6.68  -4.22  -188.591927    2             
iter:  14  18:11:18  -7.20  -4.30  -188.591893    2             
iter:  15  18:11:23  -7.80  -4.42  -188.591897    2             

Converged after 15 iterations.

Dipole moment: (0.900811, 0.494011, -0.346055) |e|*Ang

Energy contributions relative to reference atoms: (reference = -3515676.321306)

Kinetic:       -166.303130
Potential:      +87.772880
External:        +0.000000
XC:            -107.119184
Entropy (-ST):   -1.603542
Local:           -2.140692
--------------------------
Free energy:   -189.393668
Extrapolated:  -188.591897

Fermi level: 1.52797

Showing only first 2 kpts
 Kpt  Band  Eigenvalues  Occupancy
  0   203      1.39633    0.19714
  0   204      1.46976    0.16039
  0   205      1.52001    0.12997
  0   206      1.63348    0.06456

  1   203      1.46696    0.16199
  1   204      1.52016    0.12988
  1   205      1.52789    0.12505
  1   206      1.55748    0.10669


No gap

Forces in eV/Ang:
  0 Rh   -0.00747    0.03355   -0.01548
  1 Rh   -0.03825    0.01734    0.07284
  2 Rh    0.03708    0.01818    0.06817
  3 Rh   -0.00696   -0.04574    0.07712
  4 Rh   -0.00221    0.00193    0.02987
  5 Rh    0.00792   -0.04294    0.07056
  6 Rh    0.03943    0.02943    0.07168
  7 Rh   -0.03533    0.03034    0.06902
  8 Rh    0.00164   -0.00089    0.02770
  9 Rh   -0.06203    0.03249    0.19704
 10 Rh    0.07422    0.03564    0.19614
 11 Rh   -0.00987    0.05751    0.10006
 12 Rh   -0.00109   -0.05071    0.01580
 13 Rh    0.05215   -0.01335    0.08936
 14 Rh   -0.06287   -0.00839    0.09987
 15 Rh    0.04179    0.02583    0.01636
 16 Rh    0.00309   -0.08090    0.16894
 17 Rh   -0.04156    0.02486    0.01950
 18 Rh   -0.00112   -0.02893    0.04004
 19 Rh    0.00832   -0.02932    0.04848
 20 Rh   -0.00622   -0.10217    0.00304
 21 Rh    0.00151    0.00145    0.03432
 22 Rh   -0.00407    0.01986    0.47035
 23 Rh   -0.01869    0.02072    0.43269
 24 Rh   -0.13159    0.07188    0.00116
 25 Rh   -0.00535    0.09472    0.47125
 26 Rh    0.10747    0.06691    0.00067
 27 O     0.05789   -0.17764   -2.73018

System changes: positions 

Initializing position-dependent things.

Density initialized from wave functions
                                           
                                           
                                           
                                           
                                           
                      O                    
                Rh     Rh     Rh           
                                           
            Rh   RRh    RRh    Rh          
       Rh     Rh    Rh                     
             Rh    Rh     Rh               
        Rh     Rh   RRh    Rh    Rh        
                                           
                Rh    Rh     Rh            
           Rh    Rh     Rh                 
                                           
                                           
                                           
                                           

Positions:
   0 Rh     1.356917    0.787441    6.033431    ( 0.0000,  0.0000,  0.0000)
   1 Rh     4.069535    0.785880    6.059065    ( 0.0000,  0.0000,  0.0000)
   2 Rh     6.791753    0.785670    6.058370    ( 0.0000,  0.0000,  0.0000)
   3 Rh     2.715141    3.131178    6.059184    ( 0.0000,  0.0000,  0.0000)
   4 Rh     5.430384    3.135405    6.057794    ( 0.0000,  0.0000,  0.0000)
   5 Rh     8.146267    3.131150    6.058580    ( 0.0000,  0.0000,  0.0000)
   6 Rh     4.076590    5.489197    6.058804    ( 0.0000,  0.0000,  0.0000)
   7 Rh     6.784484    5.489157    6.058920    ( 0.0000,  0.0000,  0.0000)
   8 Rh     9.503847    5.486557    6.060251    ( 0.0000,  0.0000,  0.0000)
   9 Rh    -0.008016    1.571837    8.239905    ( 0.0000,  0.0000,  0.0000)
  10 Rh     2.724554    1.571887    8.240967    ( 0.0000,  0.0000,  0.0000)
  11 Rh     5.429732    1.570203    8.218562    ( 0.0000,  0.0000,  0.0000)
  12 Rh     1.357762    3.920120    8.219565    ( 0.0000,  0.0000,  0.0000)
  13 Rh     4.075852    3.919318    8.216478    ( 0.0000,  0.0000,  0.0000)
  14 Rh     6.784790    3.920062    8.217289    ( 0.0000,  0.0000,  0.0000)
  15 Rh     2.714859    6.270256    8.219174    ( 0.0000,  0.0000,  0.0000)
  16 Rh     5.431057    6.259487    8.239767    ( 0.0000,  0.0000,  0.0000)
  17 Rh     8.146426    6.270372    8.219103    ( 0.0000,  0.0000,  0.0000)
  18 Rh    -0.001090   -0.001265   10.377067    ( 0.0000,  0.0000,  0.0000)
  19 Rh     2.716558   -0.001761   10.377211    ( 0.0000,  0.0000,  0.0000)
  20 Rh     5.430526   -0.014701   10.377715    ( 0.0000,  0.0000,  0.0000)
  21 Rh     1.357187    2.352671   10.376916    ( 0.0000,  0.0000,  0.0000)
  22 Rh     4.106572    2.379474   10.484695    ( 0.0000,  0.0000,  0.0000)
  23 Rh     6.757163    2.373082   10.471609    ( 0.0000,  0.0000,  0.0000)
  24 Rh     2.699671    4.710862   10.378035    ( 0.0000,  0.0000,  0.0000)
  25 Rh     5.426435    4.653783   10.504872    ( 0.0000,  0.0000,  0.0000)
  26 Rh     8.160393    4.710430   10.378021    ( 0.0000,  0.0000,  0.0000)
  27 O      5.375142    3.248548   12.058670    ( 0.0000,  0.0000,  0.0000)

Unit cell:
           periodic     x           y           z      points  spacing
  1. axis:    yes    8.145870    0.000000    0.000000    40     0.1764
  2. axis:    yes    4.072935    7.054530    0.000000    40     0.1764
  3. axis:    no     0.000000    0.000000   16.434050    81     0.2029

  Lengths:   8.145870   8.145870  16.434050
  Angles:   90.000000  90.000000  60.000000

Effective grid spacing dv^(1/3) = 0.1939

                     log10-error:    total        iterations:
           time      wfs    density  energy       fermi  poisson
iter:   1  18:11:30  -2.93   +inf  -189.195145    3             
iter:   2  18:11:34  -2.49  -2.19  -191.015706    3             
iter:   3  18:11:39  -2.70  -1.86  -189.061340    3             
iter:   4  18:11:43  -4.02  -2.25  -188.729765    3             
iter:   5  18:11:48  -4.54  -2.97  -188.719781    3             
iter:   6  18:11:52  -5.16  -3.19  -188.717530    3             
iter:   7  18:11:57  -5.47  -3.37  -188.716181    2             
iter:   8  18:12:01  -4.70  -3.44  -188.713909    3             
iter:   9  18:12:06  -5.22  -3.79  -188.713608    2             
iter:  10  18:12:10  -6.17  -3.92  -188.713620    2             
iter:  11  18:12:14  -6.27  -3.96  -188.713614    2             
iter:  12  18:12:19  -6.43  -4.15  -188.713691    2             
iter:  13  18:12:23  -6.88  -4.26  -188.713738    2             
iter:  14  18:12:28  -7.39  -4.04  -188.713662    2             
iter:  15  18:12:32  -7.89  -4.41  -188.713667    2             

Converged after 15 iterations.

Dipole moment: (1.094531, 0.615300, -0.311158) |e|*Ang

Energy contributions relative to reference atoms: (reference = -3515676.321306)

Kinetic:       -165.312286
Potential:      +86.878980
External:        +0.000000
XC:            -107.328744
Entropy (-ST):   -1.610382
Local:           -2.146426
--------------------------
Free energy:   -189.518858
Extrapolated:  -188.713667

Fermi level: 1.54194

Showing only first 2 kpts
 Kpt  Band  Eigenvalues  Occupancy
  0   203      1.41273    0.19613
  0   204      1.48381    0.16034
  0   205      1.53289    0.13065
  0   206      1.64824    0.06419

  1   203      1.48619    0.15897
  1   204      1.53534    0.12913
  1   205      1.54328    0.12416
  1   206      1.57275    0.10590


No gap

Forces in eV/Ang:
  0 Rh   -0.00692    0.03052    0.01953
  1 Rh   -0.03700    0.01635    0.08006
  2 Rh    0.03536    0.01760    0.07620
  3 Rh   -0.00743   -0.04444    0.08442
  4 Rh   -0.00205    0.00172    0.03126
  5 Rh    0.00790   -0.04083    0.07859
  6 Rh    0.03820    0.02898    0.07884
  7 Rh   -0.03322    0.02975    0.07579
  8 Rh    0.00137   -0.00023    0.02682
  9 Rh   -0.05431    0.02908    0.17858
 10 Rh    0.06307    0.03119    0.17295
 11 Rh   -0.00879    0.05701    0.10902
 12 Rh   -0.00169   -0.05752    0.01488
 13 Rh    0.04879   -0.01367    0.09786
 14 Rh   -0.06004   -0.01052    0.10854
 15 Rh    0.04637    0.02951    0.01634
 16 Rh    0.00253   -0.06234    0.14155
 17 Rh   -0.04585    0.02767    0.01932
 18 Rh   -0.00213   -0.03035    0.05223
 19 Rh    0.00883   -0.02971    0.06177
 20 Rh   -0.00673   -0.09060    0.01055
 21 Rh    0.00219    0.00297    0.04783
 22 Rh   -0.10231   -0.05238    0.32182
 23 Rh    0.05391   -0.02761    0.32030
 24 Rh   -0.12365    0.06841    0.00590
 25 Rh    0.00358    0.27828    0.25104
 26 Rh    0.09789    0.06303    0.00602
 27 O     0.07952   -0.25022   -2.51808

System changes: positions 

Initializing position-dependent things.

Density initialized from wave functions
                                           
                                           
                                           
                                           
                                           
                      O                    
                Rh     Rh     Rh           
                                           
            Rh   RhRh   RRh    Rh          
       Rh     Rh    Rh                     
             Rh    Rh     Rh               
        Rh     Rh   RRh    Rh    Rh        
                                           
                Rh    Rh     Rh            
           Rh    Rh     Rh                 
                                           
                                           
                                           
                                           

Positions:
   0 Rh     1.356808    0.788035    6.030970    ( 0.0000,  0.0000,  0.0000)
   1 Rh     4.068898    0.786219    6.060139    ( 0.0000,  0.0000,  0.0000)
   2 Rh     6.792386    0.785983    6.059327    ( 0.0000,  0.0000,  0.0000)
   3 Rh     2.715057    3.130392    6.060282    ( 0.0000,  0.0000,  0.0000)
   4 Rh     5.430341    3.135399    6.058294    ( 0.0000,  0.0000,  0.0000)
   5 Rh     8.146389    3.130399    6.059592    ( 0.0000,  0.0000,  0.0000)
   6 Rh     4.077245    5.489655    6.059808    ( 0.0000,  0.0000,  0.0000)
   7 Rh     6.783857    5.489614    6.059944    ( 0.0000,  0.0000,  0.0000)
   8 Rh     9.503896    5.486523    6.061138    ( 0.0000,  0.0000,  0.0000)
   9 Rh    -0.009302    1.572558    8.243476    ( 0.0000,  0.0000,  0.0000)
  10 Rh     2.725969    1.572578    8.244519    ( 0.0000,  0.0000,  0.0000)
  11 Rh     5.429579    1.570885    8.219499    ( 0.0000,  0.0000,  0.0000)
  12 Rh     1.357766    3.919865    8.219965    ( 0.0000,  0.0000,  0.0000)
  13 Rh     4.076493    3.919189    8.217057    ( 0.0000,  0.0000,  0.0000)
  14 Rh     6.784025    3.920039    8.218046    ( 0.0000,  0.0000,  0.0000)
  15 Rh     2.715063    6.270384    8.219531    ( 0.0000,  0.0000,  0.0000)
  16 Rh     5.431139    6.258008    8.242846    ( 0.0000,  0.0000,  0.0000)
  17 Rh     8.146236    6.270505    8.219468    ( 0.0000,  0.0000,  0.0000)
  18 Rh    -0.001375   -0.001654   10.377714    ( 0.0000,  0.0000,  0.0000)
  19 Rh     2.716882   -0.002194   10.377942    ( 0.0000,  0.0000,  0.0000)
  20 Rh     5.430479   -0.017035   10.378152    ( 0.0000,  0.0000,  0.0000)
  21 Rh     1.357144    2.353004   10.377546    ( 0.0000,  0.0000,  0.0000)
  22 Rh     4.108314    2.381337   10.498800    ( 0.0000,  0.0000,  0.0000)
  23 Rh     6.754853    2.374783   10.484677    ( 0.0000,  0.0000,  0.0000)
  24 Rh     2.696965    4.712239   10.378424    ( 0.0000,  0.0000,  0.0000)
  25 Rh     5.426079    4.652923   10.519797    ( 0.0000,  0.0000,  0.0000)
  26 Rh     8.162787    4.711711   10.378428    ( 0.0000,  0.0000,  0.0000)
  27 O      5.376356    3.245102   12.018838    ( 0.0000,  0.0000,  0.0000)

Unit cell:
           periodic     x           y           z      points  spacing
  1. axis:    yes    8.145870    0.000000    0.000000    40     0.1764
  2. axis:    yes    4.072935    7.054530    0.000000    40     0.1764
  3. axis:    no     0.000000    0.000000   16.434050    81     0.2029

  Lengths:   8.145870   8.145870  16.434050
  Angles:   90.000000  90.000000  60.000000

Effective grid spacing dv^(1/3) = 0.1939

                     log10-error:    total        iterations:
           time      wfs    density  energy       fermi  poisson
iter:   1  18:12:39  -2.92   +inf  -189.286475    3             
iter:   2  18:12:44  -2.50  -2.20  -191.052580    3             
iter:   3  18:12:48  -2.73  -1.87  -189.118110    3             
iter:   4  18:12:53  -4.07  -2.28  -188.833885    3             
iter:   5  18:12:58  -4.48  -2.96  -188.822740    2             
iter:   6  18:13:02  -5.18  -3.21  -188.820726    3             
iter:   7  18:13:07  -5.47  -3.38  -188.819356    2             
iter:   8  18:13:11  -4.69  -3.45  -188.817137    3             
iter:   9  18:13:16  -5.24  -3.79  -188.816856    2             
iter:  10  18:13:20  -6.14  -3.88  -188.816875    2             
iter:  11  18:13:25  -6.54  -3.91  -188.816877    2             
iter:  12  18:13:29  -6.28  -3.94  -188.816875    2             
iter:  13  18:13:34  -6.59  -4.12  -188.816946    2             
iter:  14  18:13:38  -7.33  -4.27  -188.816909    2             
iter:  15  18:13:43  -7.74  -4.42  -188.816913    2             

Converged after 15 iterations.

Dipole moment: (1.309799, 0.748194, -0.277352) |e|*Ang

Energy contributions relative to reference atoms: (reference = -3515676.321306)

Kinetic:       -163.954355
Potential:      +85.682190
External:        +0.000000
XC:            -107.578578
Entropy (-ST):   -1.617670
Local:           -2.157335
--------------------------
Free energy:   -189.625748
Extrapolated:  -188.816913

Fermi level: 1.55558

Showing only first 2 kpts
 Kpt  Band  Eigenvalues  Occupancy
  0   203      1.42922    0.19491
  0   204      1.49765    0.16023
  0   205      1.54522    0.13147
  0   206      1.66255    0.06387

  1   203      1.50522    0.15583
  1   204      1.54994    0.12853
  1   205      1.55908    0.12281
  1   206      1.58732    0.10533


No gap

Forces in eV/Ang:
  0 Rh   -0.00595    0.02616    0.05549
  1 Rh   -0.03582    0.01515    0.08678
  2 Rh    0.03366    0.01694    0.08399
  3 Rh   -0.00801   -0.04294    0.09102
  4 Rh   -0.00175    0.00151    0.03419
  5 Rh    0.00792   -0.03844    0.08618
  6 Rh    0.03690    0.02852    0.08534
  7 Rh   -0.03094    0.02918    0.08190
  8 Rh    0.00100    0.00055    0.02624
  9 Rh   -0.04480    0.02510    0.15562
 10 Rh    0.04956    0.02593    0.14533
 11 Rh   -0.00742    0.05635    0.11793
 12 Rh   -0.00237   -0.06473    0.01372
 13 Rh    0.04482   -0.01407    0.10595
 14 Rh   -0.05644   -0.01303    0.11683
 15 Rh    0.05107    0.03340    0.01597
 16 Rh    0.00190   -0.04110    0.11120
 17 Rh   -0.05024    0.03060    0.01876
 18 Rh   -0.00385   -0.03039    0.06416
 19 Rh    0.00940   -0.02888    0.07470
 20 Rh   -0.00720   -0.07699    0.01861
 21 Rh    0.00251    0.00547    0.06187
 22 Rh   -0.21431   -0.13294    0.15392
 23 Rh    0.13523   -0.08087    0.19474
 24 Rh   -0.11359    0.06381    0.01081
 25 Rh    0.01268    0.48088    0.00757
 26 Rh    0.08626    0.05791    0.01176
 27 O     0.10652   -0.33083   -2.08971

System changes: positions 

Initializing position-dependent things.

Density initialized from wave functions
                                           
                                           
                                           
                                           
                                           
                      O                    
                Rh     Rh     Rh           
                                           
            Rh   RhRh   RRh    Rh          
       Rh    RRh   RRh    Rh               
                                           
        Rh     Rh   RRh    Rh    Rh        
                                           
                Rh    Rh     Rh            
           Rh    Rh     Rh                 
                                           
                                           
                                           
                                           

Positions:
   0 Rh     1.356698    0.788631    6.029231    ( 0.0000,  0.0000,  0.0000)
   1 Rh     4.068189    0.786579    6.061531    ( 0.0000,  0.0000,  0.0000)
   2 Rh     6.793079    0.786329    6.060610    ( 0.0000,  0.0000,  0.0000)
   3 Rh     2.714945    3.129521    6.061709    ( 0.0000,  0.0000,  0.0000)
   4 Rh     5.430298    3.135394    6.058924    ( 0.0000,  0.0000,  0.0000)
   5 Rh     8.146531    3.129587    6.060932    ( 0.0000,  0.0000,  0.0000)
   6 Rh     4.077975    5.490178    6.061125    ( 0.0000,  0.0000,  0.0000)
   7 Rh     6.783185    5.490137    6.061264    ( 0.0000,  0.0000,  0.0000)
   8 Rh     9.503942    5.486502    6.062068    ( 0.0000,  0.0000,  0.0000)
   9 Rh    -0.010554    1.573278    8.247105    ( 0.0000,  0.0000,  0.0000)
  10 Rh     2.727307    1.573253    8.248038    ( 0.0000,  0.0000,  0.0000)
  11 Rh     5.429426    1.571702    8.220874    ( 0.0000,  0.0000,  0.0000)
  12 Rh     1.357754    3.919327    8.220381    ( 0.0000,  0.0000,  0.0000)
  13 Rh     4.077190    3.919019    8.218039    ( 0.0000,  0.0000,  0.0000)
  14 Rh     6.783166    3.919948    8.219234    ( 0.0000,  0.0000,  0.0000)
  15 Rh     2.715478    6.270660    8.219923    ( 0.0000,  0.0000,  0.0000)
  16 Rh     5.431216    6.256734    8.245771    ( 0.0000,  0.0000,  0.0000)
  17 Rh     8.145842    6.270766    8.219873    ( 0.0000,  0.0000,  0.0000)
  18 Rh    -0.001681   -0.002121   10.378674    ( 0.0000,  0.0000,  0.0000)
  19 Rh     2.717229   -0.002687   10.379028    ( 0.0000,  0.0000,  0.0000)
  20 Rh     5.430406   -0.019345   10.378721    ( 0.0000,  0.0000,  0.0000)
  21 Rh     1.357115    2.353371   10.378510    ( 0.0000,  0.0000,  0.0000)
  22 Rh     4.107886    2.381685   10.510680    ( 0.0000,  0.0000,  0.0000)
  23 Rh     6.754089    2.375490   10.496237    ( 0.0000,  0.0000,  0.0000)
  24 Rh     2.694138    4.713704   10.378883    ( 0.0000,  0.0000,  0.0000)
  25 Rh     5.425893    4.656195   10.531036    ( 0.0000,  0.0000,  0.0000)
  26 Rh     8.165208    4.713057   10.378916    ( 0.0000,  0.0000,  0.0000)
  27 O      5.378210    3.239706   11.979247    ( 0.0000,  0.0000,  0.0000)

Unit cell:
           periodic     x           y           z      points  spacing
  1. axis:    yes    8.145870    0.000000    0.000000    40     0.1764
  2. axis:    yes    4.072935    7.054530    0.000000    40     0.1764
  3. axis:    no     0.000000    0.000000   16.434050    81     0.2029

  Lengths:   8.145870   8.145870  16.434050
  Angles:   90.000000  90.000000  60.000000

Effective grid spacing dv^(1/3) = 0.1939

                     log10-error:    total        iterations:
           time      wfs    density  energy       fermi  poisson
iter:   1  18:13:50  -2.97   +inf  -189.342867    3             
iter:   2  18:13:54  -2.51  -2.20  -191.225459    3             
iter:   3  18:13:59  -2.77  -1.86  -189.095986    3             
iter:   4  18:14:04  -4.22  -2.37  -188.913095    3             
iter:   5  18:14:08  -4.47  -2.96  -188.901352    2             
iter:   6  18:14:13  -5.31  -3.27  -188.900026    3             
iter:   7  18:14:17  -5.65  -3.42  -188.898960    2             
iter:   8  18:14:22  -4.72  -3.50  -188.897119    3             
iter:   9  18:14:26  -5.44  -3.84  -188.896959    2             
iter:  10  18:14:31  -6.23  -3.86  -188.896939    2             
iter:  11  18:14:35  -6.64  -3.94  -188.896937    2             
iter:  12  18:14:40  -6.42  -4.03  -188.896956    2             
iter:  13  18:14:45  -6.67  -4.15  -188.897035    2             
iter:  14  18:14:49  -7.46  -4.31  -188.896999    2             

Converged after 14 iterations.

Dipole moment: (1.543714, 0.894256, -0.247374) |e|*Ang

Energy contributions relative to reference atoms: (reference = -3515676.321306)

Kinetic:       -162.310522
Potential:      +84.256461
External:        +0.000000
XC:            -107.864243
Entropy (-ST):   -1.624398
Local:           -2.166497
--------------------------
Free energy:   -189.709198
Extrapolated:  -188.896999

Fermi level: 1.56838

Showing only first 2 kpts
 Kpt  Band  Eigenvalues  Occupancy
  0   203      1.44486    0.19368
  0   204      1.51071    0.16008
  0   205      1.55649    0.13242
  0   206      1.67625    0.06344

  1   203      1.52267    0.15308
  1   204      1.56286    0.12845
  1   205      1.57516    0.12077
  1   206      1.60034    0.10519


No gap

Forces in eV/Ang:
  0 Rh   -0.00454    0.02018    0.08729
  1 Rh   -0.03367    0.01422    0.09435
  2 Rh    0.03095    0.01648    0.09281
  3 Rh   -0.00777   -0.04022    0.09825
  4 Rh   -0.00140    0.00124    0.04018
  5 Rh    0.00699   -0.03494    0.09471
  6 Rh    0.03497    0.02706    0.09255
  7 Rh   -0.02842    0.02754    0.08904
  8 Rh    0.00072    0.00129    0.03000
  9 Rh   -0.03192    0.01944    0.12767
 10 Rh    0.03235    0.01867    0.11430
 11 Rh   -0.00557    0.05160    0.12080
 12 Rh   -0.00292   -0.06715    0.01413
 13 Rh    0.03647   -0.01237    0.10695
 14 Rh   -0.04827   -0.01384    0.11796
 15 Rh    0.05197    0.03484    0.01672
 16 Rh    0.00134   -0.01697    0.08135
 17 Rh   -0.05101    0.03128    0.01903
 18 Rh   -0.00719   -0.02710    0.07069
 19 Rh    0.01038   -0.02530    0.08116
 20 Rh   -0.00738   -0.06178    0.02429
 21 Rh    0.00195    0.00902    0.07147
 22 Rh   -0.30826   -0.19828   -0.01053
 23 Rh    0.20015   -0.12242    0.07188
 24 Rh   -0.10035    0.05760    0.01260
 25 Rh    0.01863    0.63849   -0.21429
 26 Rh    0.07257    0.05131    0.01487
 27 O     0.13574   -0.39933   -1.56256

System changes: positions 

Initializing position-dependent things.

Density initialized from wave functions
                                           
                                           
                                           
                                           
                                           
                      O                    
                Rh     Rh     Rh           
                                           
            Rh   RhRh   RRh    Rh          
       Rh    RRh   RRh    Rh               
                                           
        Rh     Rh   RRh    Rh    Rh        
                                           
                Rh    Rh     Rh            
           Rh    Rh     Rh                 
                                           
                                           
                                           
                                           

Positions:
   0 Rh     1.356588    0.789222    6.028342    ( 0.0000,  0.0000,  0.0000)
   1 Rh     4.067378    0.786980    6.063399    ( 0.0000,  0.0000,  0.0000)
   2 Rh     6.793853    0.786735    6.062383    ( 0.0000,  0.0000,  0.0000)
   3 Rh     2.714806    3.128532    6.063625    ( 0.0000,  0.0000,  0.0000)
   4 Rh     5.430255    3.135393    6.059798    ( 0.0000,  0.0000,  0.0000)
   5 Rh     8.146685    3.128689    6.062765    ( 0.0000,  0.0000,  0.0000)
   6 Rh     4.078816    5.490787    6.062909    ( 0.0000,  0.0000,  0.0000)
   7 Rh     6.782437    5.490746    6.063035    ( 0.0000,  0.0000,  0.0000)
   8 Rh     9.503985    5.486498    6.063153    ( 0.0000,  0.0000,  0.0000)
   9 Rh    -0.011741    1.573987    8.250843    ( 0.0000,  0.0000,  0.0000)
  10 Rh     2.728527    1.573896    8.251574    ( 0.0000,  0.0000,  0.0000)
  11 Rh     5.429277    1.572656    8.222776    ( 0.0000,  0.0000,  0.0000)
  12 Rh     1.357722    3.918477    8.220856    ( 0.0000,  0.0000,  0.0000)
  13 Rh     4.077915    3.918827    8.219471    ( 0.0000,  0.0000,  0.0000)
  14 Rh     6.782228    3.919792    8.220919    ( 0.0000,  0.0000,  0.0000)
  15 Rh     2.716123    6.271101    8.220391    ( 0.0000,  0.0000,  0.0000)
  16 Rh     5.431290    6.255731    8.248604    ( 0.0000,  0.0000,  0.0000)
  17 Rh     8.145222    6.271167    8.220359    ( 0.0000,  0.0000,  0.0000)
  18 Rh    -0.002047   -0.002648   10.379977    ( 0.0000,  0.0000,  0.0000)
  19 Rh     2.717618   -0.003228   10.380498    ( 0.0000,  0.0000,  0.0000)
[...]
iter:   6  17:59:26  -5.91  -3.71  -167.361739    2             
iter:   7  17:59:32  -5.97  -3.86  -167.361707    2             
iter:   8  17:59:37  -6.36  -4.01  -167.361856    2             
iter:   9  17:59:42  -7.12  -4.15  -167.361832    2             
iter:  10  17:59:48  -6.86  -4.22  -167.361900    2             
iter:  11  17:59:53  -7.53  -4.40  -167.361913    2             

Converged after 11 iterations.

Dipole moment: (1.939770, 0.105143, -0.050380) |e|*Ang

Energy contributions relative to reference atoms: (reference = -13512175.647022)

Kinetic:       -315.218535
Potential:     +242.334981
External:        +0.000000
XC:             -78.981329
Entropy (-ST):   -1.680753
Local:          -14.656654
--------------------------
Free energy:   -168.202290
Extrapolated:  -167.361913

Fermi level: 1.39182

Showing only first 2 kpts
 Kpt  Band  Eigenvalues  Occupancy
  0   217      1.35277    0.14910
  0   218      1.46480    0.08131
  0   219      1.52750    0.05119
  0   220      1.55150    0.04211

  1   217      1.28328    0.18688
  1   218      1.32714    0.16407
  1   219      1.33885    0.15736
  1   220      1.34836    0.15174


No gap

Forces in eV/Ang:
  0 Pt   -0.00052    0.00433   -0.04959
  1 Pt    0.01729   -0.01154    0.02135
  2 Pt   -0.01964   -0.01333    0.02300
  3 Pt   -0.00044    0.02067    0.02262
  4 Pt   -0.00083   -0.00066    0.02778
  5 Pt    0.00015    0.02158    0.02302
  6 Pt   -0.01651   -0.01056    0.02891
  7 Pt    0.01466   -0.01016    0.02738
  8 Pt    0.00008   -0.00104    0.01701
  9 Pt   -0.01477    0.01083    0.07503
 10 Pt    0.01864    0.01306    0.07907
 11 Pt   -0.00059   -0.01776   -0.04150
 12 Pt   -0.00051    0.01431    0.04033
 13 Pt   -0.02013    0.01979   -0.04577
 14 Pt    0.02075    0.02058   -0.04233
 15 Pt    0.00038    0.00673    0.03499
 16 Pt    0.00006   -0.04839    0.09954
 17 Pt   -0.00029    0.00548    0.03241
 18 Pt    0.03192   -0.01987   -0.03180
 19 Pt   -0.02790   -0.01760   -0.03137
 20 Pt   -0.00004   -0.05207    0.00043
 21 Pt    0.00235   -0.01211   -0.02782
 22 Pt    0.06223    0.02022   -0.04753
 23 Pt   -0.06571    0.02298   -0.04103
 24 Pt   -0.05751    0.03240    0.00878
 25 Pt   -0.00046   -0.01582   -0.06903
 26 Pt    0.05582    0.03120    0.01131
 27 O     0.00264   -0.01419   -0.15599

System changes: positions 

Initializing position-dependent things.

Density initialized from wave functions
                                            
                                            
                                            
                                            
                                            
                       O                    
                 Pt     Pt     Pt           
            Pt     Pt     Pt                
                  Pt     Pt    Pt           
       Pt    PPt    PPt    Pt               
                                            
        Pt     Pt    PPt    Pt    Pt        
                       Pt                   
                Pt            Pt            
           Pt     Pt     Pt                 
                                            
                                            
                                            
                                            

Positions:
   0 Pt     1.401856    0.808613    6.017165    ( 0.0000,  0.0000,  0.0000)
   1 Pt     4.203337    0.810477    6.015712    ( 0.0000,  0.0000,  0.0000)
   2 Pt     7.025359    0.809969    6.015326    ( 0.0000,  0.0000,  0.0000)
   3 Pt     2.804341    3.233752    6.014891    ( 0.0000,  0.0000,  0.0000)
   4 Pt     5.612638    3.240068    6.026801    ( 0.0000,  0.0000,  0.0000)
   5 Pt     8.422628    3.232935    6.018000    ( 0.0000,  0.0000,  0.0000)
   6 Pt     4.214359    5.678196    6.014300    ( 0.0000,  0.0000,  0.0000)
   7 Pt     7.012242    5.676878    6.017863    ( 0.0000,  0.0000,  0.0000)
   8 Pt     9.824048    5.671365    5.976349    ( 0.0000,  0.0000,  0.0000)
   9 Pt    -0.002414    1.625265    8.362812    ( 0.0000,  0.0000,  0.0000)
  10 Pt     2.809561    1.625606    8.359934    ( 0.0000,  0.0000,  0.0000)
  11 Pt     5.614854    1.639422    8.327701    ( 0.0000,  0.0000,  0.0000)
  12 Pt     1.404433    4.050133    8.288882    ( 0.0000,  0.0000,  0.0000)
  13 Pt     4.226654    4.047260    8.327009    ( 0.0000,  0.0000,  0.0000)
  14 Pt     7.003741    4.047606    8.327561    ( 0.0000,  0.0000,  0.0000)
  15 Pt     2.809636    6.486019    8.289322    ( 0.0000,  0.0000,  0.0000)
  16 Pt     5.614088    6.488258    8.362957    ( 0.0000,  0.0000,  0.0000)
  17 Pt     8.419045    6.487163    8.289734    ( 0.0000,  0.0000,  0.0000)
  18 Pt    -0.002092    0.008190   10.654934    ( 0.0000,  0.0000,  0.0000)
  19 Pt     2.811622    0.007322   10.655288    ( 0.0000,  0.0000,  0.0000)
  20 Pt     5.615221   -0.017934   10.580434    ( 0.0000,  0.0000,  0.0000)
  21 Pt     1.404280    2.442964   10.655385    ( 0.0000,  0.0000,  0.0000)
  22 Pt     4.129428    2.392937   10.686123    ( 0.0000,  0.0000,  0.0000)
  23 Pt     7.097193    2.394951   10.687097    ( 0.0000,  0.0000,  0.0000)
  24 Pt     2.787335    4.882779   10.578757    ( 0.0000,  0.0000,  0.0000)
  25 Pt     5.615048    4.959227   10.687198    ( 0.0000,  0.0000,  0.0000)
  26 Pt     8.444263    4.883461   10.580139    ( 0.0000,  0.0000,  0.0000)
  27 O      5.613053    3.247861   11.816857    ( 0.0000,  0.0000,  0.0000)

Unit cell:
           periodic     x           y           z      points  spacing
  1. axis:    yes    8.421642    0.000000    0.000000    42     0.1737
  2. axis:    yes    4.210821    7.293356    0.000000    42     0.1737
  3. axis:    no     0.000000    0.000000   16.584161    84     0.1974

  Lengths:   8.421642   8.421642  16.584161
  Angles:   90.000000  90.000000  60.000000

Effective grid spacing dv^(1/3) = 0.1901

                     log10-error:    total        iterations:
           time      wfs    density  energy       fermi  poisson
iter:   1  18:00:01  -3.54   +inf  -167.424468    3             
iter:   2  18:00:07  -3.67  -2.75  -167.455063    3             
iter:   3  18:00:12  -4.13  -2.65  -167.374317    3             
iter:   4  18:00:18  -5.46  -3.16  -167.367366    2             
iter:   5  18:00:23  -5.74  -3.56  -167.366412    2             
iter:   6  18:00:28  -5.94  -3.76  -167.366298    2             
iter:   7  18:00:34  -6.09  -3.93  -167.366223    2             
iter:   8  18:00:39  -6.57  -4.10  -167.366279    2             
iter:   9  18:00:44  -7.15  -4.21  -167.366270    2             
iter:  10  18:00:50  -7.08  -4.28  -167.366319    2             
iter:  11  18:00:55  -7.69  -4.43  -167.366327    2             

Converged after 11 iterations.

Dipole moment: (2.010042, 0.253174, -0.046716) |e|*Ang

Energy contributions relative to reference atoms: (reference = -13512175.647022)

Kinetic:       -313.553226
Potential:     +240.934523
External:        +0.000000
XC:             -79.249934
Entropy (-ST):   -1.678783
Local:          -14.658298
--------------------------
Free energy:   -168.205718
Extrapolated:  -167.366327

Fermi level: 1.39406

Showing only first 2 kpts
 Kpt  Band  Eigenvalues  Occupancy
  0   217      1.35467    0.14931
  0   218      1.46834    0.08060
  0   219      1.52945    0.05131
  0   220      1.55353    0.04218

  1   217      1.28412    0.18754
  1   218      1.32973    0.16388
  1   219      1.34137    0.15719
  1   220      1.34917    0.15260


No gap

Forces in eV/Ang:
  0 Pt   -0.00048    0.00061   -0.04635
  1 Pt    0.00496   -0.01162    0.01591
  2 Pt   -0.00722   -0.01325    0.01754
  3 Pt   -0.00723    0.01165    0.01823
  4 Pt   -0.00050   -0.00134    0.00621
  5 Pt    0.00663    0.01282    0.01793
  6 Pt   -0.01008    0.00283    0.02373
  7 Pt    0.00851    0.00290    0.02165
  8 Pt    0.00025   -0.00103    0.01897
  9 Pt   -0.01805    0.01197    0.06456
 10 Pt    0.02061    0.01258    0.06569
 11 Pt   -0.00011   -0.02755   -0.05826
 12 Pt   -0.00072    0.00905    0.03023
 13 Pt   -0.03414    0.01689   -0.06182
 14 Pt    0.03418    0.01685   -0.05840
 15 Pt    0.00040    0.00918    0.02474
 16 Pt    0.00066   -0.04266    0.06403
 17 Pt   -0.00030    0.00784    0.02286
 18 Pt    0.01401   -0.00233   -0.02982
 19 Pt   -0.01005   -0.00086   -0.02860
 20 Pt    0.00033   -0.04800    0.01035
 21 Pt    0.00159   -0.01233   -0.03205
 22 Pt   -0.01976   -0.02283   -0.05191
 23 Pt    0.01858   -0.02135   -0.04911
 24 Pt   -0.05397    0.02341    0.01951
 25 Pt   -0.00006    0.04170   -0.05126
 26 Pt    0.05235    0.02197    0.02165
 27 O     0.00061    0.00276   -0.01964

Timing:                                      incl.     excl.
-------------------------------------------------------------------
Density initialized from wave functions:    10.854    10.853   0.2% |
 Symmetrize density:                         0.001     0.001   0.0% |
Forces:                                     49.146    49.146   1.0% |
Hamiltonian:                                12.380     0.155   0.0% |
 Atomic:                                     4.699     4.699   0.1% |
  XC Correction:                             0.000     0.000   0.0% |
 Calculate atomic Hamiltonians:              3.482     3.482   0.1% |
 Communicate:                                0.158     0.158   0.0% |
 Initialize Hamiltonian:                     0.001     0.001   0.0% |
 Poisson:                                    0.035     0.035   0.0% |
 XC 3D grid:                                 3.850     3.850   0.1% |
LCAO initialization:                         8.696     0.275   0.0% |
 LCAO eigensolver:                           1.346     0.000   0.0% |
  Calculate projections:                     0.003     0.003   0.0% |
  DenseAtomicCorrection:                     0.003     0.003   0.0% |
  Distribute overlap matrix:                 0.189     0.189   0.0% |
  Orbital Layouts:                           0.074     0.074   0.0% |
  Potential matrix:                          1.060     1.060   0.0% |
  Sum over cells:                            0.016     0.016   0.0% |
 LCAO to grid:                               6.610     6.610   0.1% |
 Set positions (LCAO WFS):                   0.464     0.089   0.0% |
  Basic WFS set positions:                   0.002     0.002   0.0% |
  Basis functions set positions:             0.000     0.000   0.0% |
  P tci:                                     0.170     0.170   0.0% |
  ST tci:                                    0.078     0.078   0.0% |
  mktci:                                     0.126     0.126   0.0% |
PWDescriptor:                                0.039     0.039   0.0% |
Redistribute:                                0.037     0.037   0.0% |
SCF-cycle:                                1841.710    48.708   1.0% |
 Davidson:                                1495.777   300.960   6.1% |-|
  Apply H:                                 161.558   156.397   3.2% ||
   HMM T:                                    5.161     5.161   0.1% |
  Subspace diag:                           253.939     0.081   0.0% |
   calc_h_matrix:                          185.706    34.051   0.7% |
    Apply H:                               151.655   145.167   3.0% ||
     HMM T:                                  6.488     6.488   0.1% |
   diagonalize:                             16.005    16.005   0.3% |
   rotate_psi:                              52.147    52.147   1.1% |
  calc. matrices:                          542.715   246.462   5.0% |-|
   Apply H:                                296.253   285.726   5.8% |-|
    HMM T:                                  10.528    10.528   0.2% |
  diagonalize:                             151.601   151.601   3.1% ||
  rotate_psi:                               85.004    85.004   1.7% ||
 Density:                                  135.720     0.014   0.0% |
  Atomic density matrices:                   1.536     1.536   0.0% |
  Mix:                                      55.114    55.114   1.1% |
  Multipole moments:                         0.125     0.125   0.0% |
  Pseudo density:                           78.931    78.917   1.6% ||
   Symmetrize density:                       0.014     0.014   0.0% |
 Hamiltonian:                              152.245     1.972   0.0% |
  Atomic:                                   60.520    60.517   1.2% |
   XC Correction:                            0.003     0.003   0.0% |
  Calculate atomic Hamiltonians:            41.325    41.325   0.8% |
  Communicate:                               1.906     1.906   0.0% |
  Poisson:                                   0.443     0.443   0.0% |
  XC 3D grid:                               46.079    46.079   0.9% |
 Orthonormalize:                             9.260     0.011   0.0% |
  calc_s_matrix:                             1.335     1.335   0.0% |
  inverse-cholesky:                          0.529     0.529   0.0% |
  projections:                               5.248     5.248   0.1% |
  rotate_psi_s:                              2.137     2.137   0.0% |
Set symmetry:                                0.002     0.002   0.0% |
Other:                                    2976.876  2976.876  60.8% |-----------------------|
-------------------------------------------------------------------
Total:                                              4899.740 100.0%

Memory usage: 573.04 MiB
Date: Fri Mar 11 18:27:42 2022
33391) |e|*Ang

Energy contributions relative to reference atoms: (reference = -13950194.172252)

Kinetic:       -299.453633
Potential:     +241.693866
External:        +0.000000
XC:             -28.290449
Entropy (-ST):   -0.258553
Local:           +3.079507
--------------------------
Free energy:    -83.229262
Extrapolated:   -83.099986

Fermi level: 0.72976

Showing only first 2 kpts
 Kpt  Band  Eigenvalues  Occupancy
  0   149      0.61163    0.19129
  0   150      0.84694    0.05914
  0   151      0.89622    0.03979
  0   152      1.06789    0.00822

  1   149     -0.18024    0.24997
  1   150      0.11001    0.24949
  1   151      0.29784    0.24672
  1   152      0.36894    0.24340


No gap

Forces in eV/Ang:
  0 Au    0.00189    0.00539   -0.08852
  1 Au    0.01243   -0.00289   -0.00700
  2 Au   -0.01771   -0.00582   -0.00836
  3 Au    0.00296    0.01244   -0.00569
  4 Au   -0.00471   -0.00518    0.03171
  5 Au   -0.00220    0.01737   -0.00383
  6 Au   -0.01310   -0.01080   -0.00606
  7 Au    0.01289   -0.00928   -0.00225
  8 Au   -0.00335   -0.00220   -0.01917
  9 Au   -0.01933    0.01503    0.06365
 10 Au    0.01705    0.01350    0.05906
 11 Au    0.00395   -0.01141   -0.00157
 12 Au   -0.00115    0.01255    0.02465
 13 Au   -0.00793    0.01654   -0.01114
 14 Au    0.00744    0.01222   -0.01563
 15 Au   -0.00148    0.00291    0.02013
 16 Au    0.00026   -0.02748    0.06901
 17 Au    0.00447   -0.00023    0.02015
 18 Au    0.01145   -0.01638   -0.01285
 19 Au   -0.00787   -0.02433   -0.01425
 20 Au    0.00104   -0.03218    0.00181
 21 Au   -0.00757    0.01451   -0.02252
 22 Au    0.04293    0.01260   -0.00398
 23 Au   -0.04244    0.01240   -0.00869
 24 Au   -0.04674    0.02938    0.00603
 25 Au    0.00064   -0.01789   -0.03030
 26 Au    0.05415    0.03207    0.00853
 27 O     0.00415   -0.03362   -0.06924

Timing:                                      incl.     excl.
-------------------------------------------------------------------
Density initialized from wave functions:    10.871    10.870   0.2% |
 Symmetrize density:                         0.001     0.001   0.0% |
Forces:                                     53.977    53.977   1.1% |
Hamiltonian:                                14.432     0.198   0.0% |
 Atomic:                                     4.862     4.862   0.1% |
  XC Correction:                             0.000     0.000   0.0% |
 Calculate atomic Hamiltonians:              4.039     4.039   0.1% |
 Communicate:                                0.474     0.474   0.0% |
 Initialize Hamiltonian:                     0.001     0.001   0.0% |
 Poisson:                                    0.043     0.043   0.0% |
 XC 3D grid:                                 4.815     4.815   0.1% |
LCAO initialization:                         5.209     0.225   0.0% |
 LCAO eigensolver:                           0.655     0.001   0.0% |
  Calculate projections:                     0.002     0.002   0.0% |
  DenseAtomicCorrection:                     0.002     0.002   0.0% |
  Distribute overlap matrix:                 0.083     0.083   0.0% |
  Orbital Layouts:                           0.040     0.040   0.0% |
  Potential matrix:                          0.518     0.518   0.0% |
  Sum over cells:                            0.010     0.010   0.0% |
 LCAO to grid:                               3.962     3.962   0.1% |
 Set positions (LCAO WFS):                   0.367     0.066   0.0% |
  Basic WFS set positions:                   0.002     0.002   0.0% |
  Basis functions set positions:             0.000     0.000   0.0% |
  P tci:                                     0.127     0.127   0.0% |
  ST tci:                                    0.051     0.051   0.0% |
  mktci:                                     0.120     0.120   0.0% |
PWDescriptor:                                0.780     0.780   0.0% |
Redistribute:                                0.037     0.037   0.0% |
SCF-cycle:                                1260.362    41.349   0.8% |
 Davidson:                                 938.597   218.380   4.5% |-|
  Apply H:                                 114.977   111.480   2.3% ||
   HMM T:                                    3.497     3.497   0.1% |
  Subspace diag:                           162.369     0.078   0.0% |
   calc_h_matrix:                          130.200    19.168   0.4% |
    Apply H:                               111.033   107.231   2.2% ||
     HMM T:                                  3.801     3.801   0.1% |
   diagonalize:                              6.540     6.540   0.1% |
   rotate_psi:                              25.552    25.552   0.5% |
  calc. matrices:                          343.871   128.284   2.6% ||
   Apply H:                                215.587   208.654   4.3% |-|
    HMM T:                                   6.933     6.933   0.1% |
  diagonalize:                              57.494    57.494   1.2% |
  rotate_psi:                               41.504    41.504   0.8% |
 Density:                                  119.128     0.013   0.0% |
  Atomic density matrices:                   1.383     1.383   0.0% |
  Mix:                                      58.314    58.314   1.2% |
  Multipole moments:                         0.126     0.126   0.0% |
  Pseudo density:                           59.292    59.280   1.2% |
   Symmetrize density:                       0.012     0.012   0.0% |
 Hamiltonian:                              154.423     2.303   0.0% |
  Atomic:                                   54.370    54.368   1.1% |
   XC Correction:                            0.002     0.002   0.0% |
  Calculate atomic Hamiltonians:            41.768    41.768   0.9% |
  Communicate:                               5.686     5.686   0.1% |
  Poisson:                                   0.427     0.427   0.0% |
  XC 3D grid:                               49.869    49.869   1.0% |
 Orthonormalize:                             6.867     0.011   0.0% |
  calc_s_matrix:                             0.805     0.805   0.0% |
  inverse-cholesky:                          0.285     0.285   0.0% |
  projections:                               4.543     4.543   0.1% |
  rotate_psi_s:                              1.223     1.223   0.0% |
Set symmetry:                                0.002     0.002   0.0% |
Other:                                    3554.067  3554.067  72.5% |----------------------------|
-------------------------------------------------------------------
Total:                                              4899.737 100.0%

Memory usage: 573.04 MiB
Date: Fri Mar 11 18:27:42 2022
