
  ___ ___ ___ _ _ _  
 |   |   |_  | | | | 
 | | | | | . | | | | 
 |__ |  _|___|_____|  19.8.1
 |___|_|             

User:   ermag@vera13-4
Date:   Fri Feb 25 12:38:49 2022
Arch:   x86_64
Pid:    239563
Python: 3.7.2
gpaw:   /apps/Vera/software/GPAW/19.8.1-intel-2019a-Python-3.7.2/lib/python3.7/site-packages/gpaw
_gpaw:  /apps/Vera/software/GPAW/19.8.1-intel-2019a-Python-3.7.2/bin/
        gpaw-python
ase:    /apps/Vera/software/ASE/3.18.0-intel-2019a-Python-3.7.2/lib/python3.7/site-packages/ase (version 3.18.0)
numpy:  /apps/Vera/software/SciPy-bundle/2019.03-intel-2019a/lib/python3.7/site-packages/numpy (version 1.16.2)
scipy:  /apps/Vera/software/SciPy-bundle/2019.03-intel-2019a/lib/python3.7/site-packages/scipy (version 1.2.1)
libxc:  4.3.4
units:  Angstrom and eV
cores:  16

Input parameters:
  kpts: [12 12 12]
  mode: {ecut: 450.00000000000006,
         gammacentered: False,
         name: pw}
  xc: PBE

System changes: positions, numbers, cell, pbc, initial_charges, initial_magmoms 

Initialize ...

Rh-setup:
  name: Rhodium
  id: 4e1d209aee696a641de1ffa1459b299f
  Z: 45
  valence: 15
  core: 30
  charge: 0.0
  file: /apps/Common/software/GPAW-setups/0.9.20000/Rh.PBE.gz
  compensation charges: gauss, rc=0.38, lmax=2
  cutoffs: 2.48(filt), 2.35(core),
  valence states:
                energy  radius
    5s(1.00)    -4.297   1.270
    4p(6.00)   -50.429   1.381
    5p(0.00)    -0.852   1.381
    4d(8.00)    -5.942   1.244
    *s          22.915   1.270
    *d          21.270   1.244

  Using partial waves for Rh as LCAO basis

Reference energy: -130134.647000

Spin-paired calculation

Occupation numbers:
  Fermi-Dirac: width=0.1000 eV

Convergence criteria:
  Maximum total energy change: 0.0005 eV / electron
  Maximum integral of absolute density change: 0.0001 electrons
  Maximum integral of absolute eigenstate change: 4e-08 eV^2
  Maximum number of iterations: 333

Symmetries present (total): 48

  ( 1  0  0)  ( 1  0  0)  ( 1  0  0)  ( 1  0  0)  ( 1  0 -1)  ( 1  0 -1)
  ( 1  0 -1)  ( 1 -1  0)  ( 0  1  0)  ( 0  0  1)  ( 1  0  0)  ( 1 -1  0)
  ( 1 -1  0)  ( 1  0 -1)  ( 0  0  1)  ( 0  1  0)  ( 1 -1  0)  ( 1  0  0)

  ( 1  0 -1)  ( 1  0 -1)  ( 1 -1  0)  ( 1 -1  0)  ( 1 -1  0)  ( 1 -1  0)
  ( 0  1 -1)  ( 0  0 -1)  ( 1  0  0)  ( 1  0 -1)  ( 0 -1  1)  ( 0 -1  0)
  ( 0  0 -1)  ( 0  1 -1)  ( 1  0 -1)  ( 1  0  0)  ( 0 -1  0)  ( 0 -1  1)

  ( 0  1  0)  ( 0  1  0)  ( 0  1  0)  ( 0  1  0)  ( 0  1 -1)  ( 0  1 -1)
  ( 1  0  0)  ( 0  1 -1)  ( 0  0  1)  (-1  1  0)  ( 1  0 -1)  ( 0  1  0)
  ( 0  0  1)  (-1  1  0)  ( 1  0  0)  ( 0  1 -1)  ( 0  0 -1)  (-1  1  0)

  ( 0  1 -1)  ( 0  1 -1)  ( 0  0  1)  ( 0  0  1)  ( 0  0  1)  ( 0  0  1)
  ( 0  0 -1)  (-1  1  0)  ( 1  0  0)  ( 0  1  0)  ( 0 -1  1)  (-1  0  1)
  ( 1  0 -1)  ( 0  1  0)  ( 0  1  0)  ( 1  0  0)  (-1  0  1)  ( 0 -1  1)

  ( 0  0 -1)  ( 0  0 -1)  ( 0  0 -1)  ( 0  0 -1)  ( 0 -1  1)  ( 0 -1  1)
  ( 1  0 -1)  ( 0  1 -1)  ( 0 -1  0)  (-1  0  0)  ( 1 -1  0)  ( 0  0  1)
  ( 0  1 -1)  ( 1  0 -1)  (-1  0  0)  ( 0 -1  0)  ( 0 -1  0)  (-1  0  1)

  ( 0 -1  1)  ( 0 -1  1)  ( 0 -1  0)  ( 0 -1  0)  ( 0 -1  0)  ( 0 -1  0)
  ( 0 -1  0)  (-1  0  1)  ( 1 -1  0)  ( 0  0 -1)  ( 0 -1  1)  (-1  0  0)
  ( 1 -1  0)  ( 0  0  1)  ( 0 -1  1)  (-1  0  0)  ( 1 -1  0)  ( 0  0 -1)

  (-1  1  0)  (-1  1  0)  (-1  1  0)  (-1  1  0)  (-1  0  1)  (-1  0  1)
  ( 0  1  0)  ( 0  1 -1)  (-1  0  1)  (-1  0  0)  ( 0  0  1)  ( 0 -1  1)
  ( 0  1 -1)  ( 0  1  0)  (-1  0  0)  (-1  0  1)  ( 0 -1  1)  ( 0  0  1)

  (-1  0  1)  (-1  0  1)  (-1  0  0)  (-1  0  0)  (-1  0  0)  (-1  0  0)
  (-1  1  0)  (-1  0  0)  ( 0  0 -1)  ( 0 -1  0)  (-1  1  0)  (-1  0  1)
  (-1  0  0)  (-1  1  0)  ( 0 -1  0)  ( 0  0 -1)  (-1  0  1)  (-1  1  0)
Note: your k-points are not as symmetric as your crystal!

1728 k-points: 12 x 12 x 12 Monkhorst-Pack grid
182 k-points in the irreducible part of the Brillouin zone
       k-points in crystal coordinates                weights
   0:     0.04166667    0.04166667   -0.04166667          6/1728
   1:     0.04166667    0.04166667    0.04166667          2/1728
   2:     0.12500000   -0.04166667   -0.04166667          6/1728
   3:     0.12500000    0.04166667   -0.12500000         12/1728
   4:     0.12500000    0.04166667   -0.04166667         12/1728
   5:     0.12500000    0.04166667    0.04166667          6/1728
   6:     0.12500000    0.12500000   -0.12500000          6/1728
   7:     0.12500000    0.12500000   -0.04166667          6/1728
   8:     0.12500000    0.12500000    0.04166667          6/1728
   9:     0.12500000    0.12500000    0.12500000          2/1728
          ...
 181:     0.45833333    0.45833333    0.45833333          2/1728

Wave functions: Plane wave expansion
  Cutoff energy: 450.000 eV
  Number of coefficients (min, max): 288, 307
  Pulay-stress correction: 0.000000 eV/Ang^3 (de/decut=0.000000)
  Using FFTW library
  ScaLapack parameters: grid=1x1, blocksize=None
  Wavefunction extrapolation:
    Improved wavefunction reuse through dual PAW basis 

Eigensolver
   Davidson(niter=2, smin=None, normalize=True) 

Densities:
  Coarse grid: 14*14*14 grid
  Fine grid: 28*28*28 grid
  Total Charge: 0.000000 

Density mixing:
  Method: separate
  Backend: pulay
  Linear mixing parameter: 0.05
  Mixing with 5 old densities
  Damping of long wave oscillations: 50 

Hamiltonian:
  XC and Coulomb potentials evaluated on a 28*28*28 grid
  Using the PBE Exchange-Correlation functional
 

XC parameters: PBE with 2 nearest neighbor stencil

Memory estimate:
  Process memory now: 121.93 MiB
  Calculator: 2.72 MiB
    Density: 1.07 MiB
      Arrays: 0.54 MiB
      Localized functions: 0.31 MiB
      Mixer: 0.21 MiB
    Hamiltonian: 0.36 MiB
      Arrays: 0.36 MiB
      XC: 0.00 MiB
      Poisson: 0.00 MiB
      vbar: 0.01 MiB
    Wavefunctions: 1.29 MiB
      Arrays psit_nG: 0.62 MiB
      Eigensolver: 0.10 MiB
      Projections: 0.04 MiB
      Projectors: 0.38 MiB
      PW-descriptor: 0.16 MiB

Total number of cores used: 16
Parallelization over k-points: 16

Number of atoms: 1
Number of atomic orbitals: 12
Number of bands in calculation: 12
Bands to converge: occupied states only
Number of valence electrons: 15

... initialized

Initializing position-dependent things.

Density initialized from atomic densities
Creating initial wave functions:
  12 bands from LCAO basis set

                
                
                
       Rh       
                
                
                
                

Positions:
   0 Rh     0.000000    0.000000    0.000000    ( 0.0000,  0.0000,  0.0000)

Unit cell:
           periodic     x           y           z      points  spacing
  1. axis:    yes    0.000000    1.900000    1.900000    14     0.1567
  2. axis:    yes    1.900000    0.000000    1.900000    14     0.1567
  3. axis:    yes    1.900000    1.900000    0.000000    14     0.1567

  Lengths:   2.687006   2.687006   2.687006
  Angles:   60.000000  60.000000  60.000000

Effective grid spacing dv^(1/3) = 0.1710

                     log10-error:    total        iterations:
           time      wfs    density  energy       fermi  poisson
iter:   1  12:39:07  +1.96   +inf    -7.883992    2             
iter:   2  12:39:07  -1.81  -1.36    -7.769290    3             
iter:   3  12:39:07  -1.19  -1.39    -7.410387    33            
iter:   4  12:39:08  -2.79  -1.77    -7.322686    28            
iter:   5  12:39:08  -2.30  -2.11    -7.298637    26            
iter:   6  12:39:08  -3.69  -2.69    -7.295895    3             
iter:   7  12:39:09  -4.47  -2.92    -7.295569    3             
iter:   8  12:39:09  -4.29  -3.09    -7.295353    3             
iter:   9  12:39:09  -5.03  -3.25    -7.295274    3             
iter:  10  12:39:10  -6.41  -3.89    -7.295270    2             
iter:  11  12:39:10  -6.03  -3.87    -7.295282    2             
iter:  12  12:39:10  -6.40  -4.14    -7.295274    2             
iter:  13  12:39:10  -7.83  -5.21    -7.295274    2             

Converged after 13 iterations.

Dipole moment: (0.000000, -0.000000, 0.000000) |e|*Ang

Energy contributions relative to reference atoms: (reference = -130134.647000)

Kinetic:         -2.220011
Potential:       -0.098012
External:        +0.000000
XC:              -4.902703
Entropy (-ST):   -0.044488
Local:           -0.052304
--------------------------
Free energy:     -7.317518
Extrapolated:    -7.295274

Fermi level: 11.86495

Showing only first 2 kpts
 Kpt  Band  Eigenvalues  Occupancy
  0     5      8.90978    0.00694
  0     6      8.91614    0.00694
  0     7     10.73270    0.00694
  0     8     10.91177    0.00694

  1     5
Forces in eV/Ang:
  0 Au    0.00000    0.00000    0.00000

Timing:       
Forces in eV/Ang:
  0 Pt    0.00000   -0.00000    0.00000

Ti
Forces in eV/Ang:
  0 Rh    0.00000   -0.00000   -0.00000

Timing:                              incl.     excl.
-----------------------------------------------------------
Forces:                              0.019     0.019   0.1% |
Hamiltonian:                         0.127     0.000   0.0% |
 Atomic:                             0.109     0.109   0.5% |
  XC Correction:                     0.000     0.000   0.0% |
 Calculate atomic Hamiltonians:      0.001     0.001   0.0% |
 Communicate:                        0.000     0.000   0.0% |
 Initialize Hamiltonian:             0.000     0.000   0.0% |
 Poisson:                            0.000     0.000   0.0% |
 XC 3D grid:                         0.016     0.016   0.1% |
LCAO initialization:                 1.919     0.102   0.5% |
 LCAO eigensolver:                   0.496     0.001   0.0% |
  Calculate projections:             0.000     0.000   0.0% |
  DenseAtomicCorrection:             0.001     0.001   0.0% |
  Distribute overlap matrix:         0.000     0.000   0.0% |
  Orbital Layouts:                   0.002     0.002   0.0% |
  Potential matrix:                  0.459     0.459   2.1% ||
  Sum over cells:                    0.032     0.032   0.2% |
 LCAO to grid:                       1.139     1.139   5.3% |-|
 Set positions (LCAO WFS):           0.182     0.030   0.1% |
  Basic WFS set positions:           0.002     0.002   0.0% |
  Basis functions set positions:     0.000     0.000   0.0% |
  P tci:                             0.036     0.036   0.2% |
  ST tci:                            0.088     0.088   0.4% |
  mktci:                             0.026     0.026   0.1% |
PWDescriptor:                        0.003     0.003   0.0% |
SCF-cycle:                           4.209     0.759   3.5% ||
 Davidson:                           1.654     0.407   1.9% ||
  Apply H:                           0.182     0.156   0.7% |
   HMM T:                            0.025     0.025   0.1% |
  Subspace diag:                     0.290     0.016   0.1% |
   calc_h_matrix:                    0.222     0.039   0.2% |
    Apply H:                         0.184     0.158   0.7% |
     HMM T:                          0.026     0.026   0.1% |
   diagonalize:                      0.033     0.033   0.2% |
   rotate_psi:                       0.019     0.019   0.1% |
  calc. matrices:                    0.627     0.263   1.2% |
   Apply H:                          0.365     0.314   1.5% ||
    HMM T:                           0.051     0.051   0.2% |
  diagonalize:                       0.118     0.118   0.5% |
  rotate_psi:                        0.030     0.030   0.1% |
 Density:                            0.272     0.000   0.0% |
  Atomic density matrices:           0.025     0.025   0.1% |
  Mix:                               0.027     0.027   0.1% |
  Multipole moments:                 0.002     0.002   0.0% |
  Pseudo density:                    0.219     0.075   0.3% |
   Symmetrize density:               0.144     0.144   0.7% |
 Hamiltonian:                        1.514     0.005   0.0% |
  Atomic:                            1.319     1.319   6.1% |-|
   XC Correction:                    0.000     0.000   0.0% |
  Calculate atomic Hamiltonians:     0.009     0.009   0.0% |
  Communicate:                       0.001     0.001   0.0% |
  Poisson:                           0.002     0.002   0.0% |
  XC 3D grid:                        0.178     0.178   0.8% |
 Orthonormalize:                     0.009     0.001   0.0% |
  calc_s_matrix:                     0.002     0.002   0.0% |
  inverse-cholesky:                  0.003     0.003   0.0% |
  projections:                       0.002     0.002   0.0% |
  rotate_psi_s:                      0.001     0.001   0.0% |
Set symmetry:                        0.191     0.191   0.9% |
Other:                              15.058    15.058  70.0% |---------------------------|
-----------------------------------------------------------
Total:                                        21.526 100.0%

Memory usage: 128.32 MiB
Date: Fri Feb 25 12:39:10 2022
