
  ___ ___ ___ _ _ _  
 |   |   |_  | | | | 
 | | | | | . | | | | 
 |__ |  _|___|_____|  19.8.1
 |___|_|             

User:   ermag@vera49-4
Date:   Thu Mar 10 15:39:35 2022
Arch:   x86_64
Pid:    92668
Python: 3.7.2
gpaw:   /apps/Vera/software/GPAW/19.8.1-intel-2019a-Python-3.7.2/lib/python3.7/site-packages/gpaw
_gpaw:  /apps/Vera/software/GPAW/19.8.1-intel-2019a-Python-3.7.2/bin/
        gpaw-python
ase:    /apps/Vera/software/ASE/3.18.0-intel-2019a-Python-3.7.2/lib/python3.7/site-packages/ase (version 3.18.0)
numpy:  /apps/Vera/software/SciPy-bundle/2019.03-intel-2019a/lib/python3.7/site-packages/numpy (version 1.16.2)
scipy:  /apps/Vera/software/SciPy-bundle/2019.03-intel-2019a/lib/python3.7/site-packages/scipy (version 1.2.1)
libxc:  4.3.4
units:  Angstrom and eV
cores:  16

Input parameters:
  kpts: [4 4 1]
  mode: {ecut: 450.00000000000006,
         gammacentered: False,
         name: pw}
  xc: PBE

System changes: positions, numbers, cell, pbc, initial_charges, initial_magmoms 

Initialize ...

Pt-setup:
  name: Platinum
  id: 5ed695806aff0c961dba1a84acd7f4b2
  Z: 78
  valence: 16
  core: 62
  charge: 0.0
  file: /apps/Common/software/GPAW-setups/0.9.20000/Pt.PBE.gz
  compensation charges: gauss, rc=0.41, lmax=2
  cutoffs: 2.26(filt), 2.26(core),
  valence states:
                energy  radius
    6s(1.00)    -5.628   1.307
    5p(6.00)   -56.051   1.371
    6p(0.00)    -0.845   1.371
    5d(9.00)    -6.153   1.307
    *s          21.583   1.307
    *d          21.058   1.307

  Using partial waves for Pt as LCAO basis

Reference energy: -13510134.794721

Spin-paired calculation

Occupation numbers:
  Fermi-Dirac: width=0.1000 eV

Convergence criteria:
  Maximum total energy change: 0.0005 eV / electron
  Maximum integral of absolute density change: 0.0001 electrons
  Maximum integral of absolute eigenstate change: 4e-08 eV^2
  Maximum number of iterations: 333

Symmetries present (total): 6

  ( 1  0  0)  ( 1 -1  0)  ( 0  1  0)  ( 0 -1  0)  (-1  1  0)  (-1  0  0)
  ( 0  1  0)  ( 0 -1  0)  ( 1  0  0)  ( 1 -1  0)  (-1  0  0)  (-1  1  0)
  ( 0  0  1)  ( 0  0  1)  ( 0  0  1)  ( 0  0  1)  ( 0  0  1)  ( 0  0  1)
Note: your k-points are not as symmetric as your crystal!

16 k-points: 4 x 4 x 1 Monkhorst-Pack grid
6 k-points in the irreducible part of the Brillouin zone
       k-points in crystal coordinates                weights
   0:     0.12500000   -0.12500000    0.00000000          2/16
   1:     0.12500000    0.12500000    0.00000000          2/16
   2:     0.37500000   -0.37500000    0.00000000          2/16
   3:     0.37500000   -0.12500000    0.00000000          4/16
   4:     0.37500000    0.12500000    0.00000000          4/16
   5:     0.37500000    0.37500000    0.00000000          2/16

Wave functions: Plane wave expansion
  Cutoff energy: 450.000 eV
  Number of coefficients (min, max): 21430, 21469
  Pulay-stress correction: 0.000000 eV/Ang^3 (de/decut=0.000000)
  Using FFTW library
  ScaLapack parameters: grid=1x1, blocksize=None
  Wavefunction extrapolation:
    Improved wavefunction reuse through dual PAW basis 

Eigensolver
   Davidson(niter=2, smin=None, normalize=True) 

Densities:
  Coarse grid: 42*42*81 grid
  Fine grid: 84*84*162 grid
  Total Charge: 0.000000 

Density mixing:
  Method: separate
  Backend: pulay
  Linear mixing parameter: 0.05
  Mixing with 5 old densities
  Damping of long wave oscillations: 50 

Hamiltonian:
  XC and Coulomb potentials evaluated on a 84*84*162 grid
  Using the PBE Exchange-Correlation functional
 

XC parameters: PBE with 2 nearest neighbor stencil

Memory estimate:
  Process memory now: 485.84 MiB
  Calculator: 375.80 MiB
    Density: 7.76 MiB
      Arrays: 3.55 MiB
      Localized functions: 2.84 MiB
      Mixer: 1.38 MiB
    Hamiltonian: 2.38 MiB
      Arrays: 2.32 MiB
      XC: 0.00 MiB
      Poisson: 0.00 MiB
      vbar: 0.06 MiB
    Wavefunctions: 365.66 MiB
      Arrays psit_nG: 259.45 MiB
      Eigensolver: 98.76 MiB
      Projections: 0.73 MiB
      Projectors: 0.92 MiB
      PW-descriptor: 5.79 MiB

Total number of cores used: 16
Parallelization over k-points: 2
Domain decomposition: 2 x 2 x 2

Number of atoms: 27
Number of atomic orbitals: 324
Number of bands in calculation: 264
Bands to converge: occupied states only
Number of valence electrons: 432

... initialized

Initializing position-dependent things.

Density initialized from atomic densities
Creating initial wave functions:
  264 bands from LCAO basis set

                                            
                                            
                                            
                                            
                 Pt     Pt     Pt           
                                            
            Pt    PPt    PPt   Pt           
       Pt     Pt     Pt                     
             Pt     Pt     Pt               
        Pt     Pt    PPt    Pt    Pt        
                                            
                Pt     Pt     Pt            
           Pt     Pt     Pt                 
                                            
                                            
                                            
                                            

Positions:
   0 Pt     1.385929    0.800167    6.000000    ( 0.0000,  0.0000,  0.0000)
   1 Pt     4.157788    0.800167    6.000000    ( 0.0000,  0.0000,  0.0000)
   2 Pt     6.929646    0.800167    6.000000    ( 0.0000,  0.0000,  0.0000)
   3 Pt     2.771859    3.200667    6.000000    ( 0.0000,  0.0000,  0.0000)
   4 Pt     5.543717    3.200667    6.000000    ( 0.0000,  0.0000,  0.0000)
   5 Pt     8.315576    3.200667    6.000000    ( 0.0000,  0.0000,  0.0000)
   6 Pt     4.157788    5.601167    6.000000    ( 0.0000,  0.0000,  0.0000)
   7 Pt     6.929646    5.601167    6.000000    ( 0.0000,  0.0000,  0.0000)
   8 Pt     9.701505    5.601167    6.000000    ( 0.0000,  0.0000,  0.0000)
   9 Pt    -0.000000    1.600333    8.263213    ( 0.0000,  0.0000,  0.0000)
  10 Pt     2.771859    1.600333    8.263213    ( 0.0000,  0.0000,  0.0000)
  11 Pt     5.543717    1.600333    8.263213    ( 0.0000,  0.0000,  0.0000)
  12 Pt     1.385929    4.000833    8.263213    ( 0.0000,  0.0000,  0.0000)
  13 Pt     4.157788    4.000833    8.263213    ( 0.0000,  0.0000,  0.0000)
  14 Pt     6.929646    4.000833    8.263213    ( 0.0000,  0.0000,  0.0000)
  15 Pt     2.771859    6.401333    8.263213    ( 0.0000,  0.0000,  0.0000)
  16 Pt     5.543717    6.401333    8.263213    ( 0.0000,  0.0000,  0.0000)
  17 Pt     8.315576    6.401333    8.263213    ( 0.0000,  0.0000,  0.0000)
  18 Pt     0.000000    0.000000   10.526426    ( 0.0000,  0.0000,  0.0000)
  19 Pt     2.771859    0.000000   10.526426    ( 0.0000,  0.0000,  0.0000)
  20 Pt     5.543717    0.000000   10.526426    ( 0.0000,  0.0000,  0.0000)
  21 Pt     1.385929    2.400500   10.526426    ( 0.0000,  0.0000,  0.0000)
  22 Pt     4.157788    2.400500   10.526426    ( 0.0000,  0.0000,  0.0000)
  23 Pt     6.929646    2.400500   10.526426    ( 0.0000,  0.0000,  0.0000)
  24 Pt     2.771859    4.801000   10.526426    ( 0.0000,  0.0000,  0.0000)
  25 Pt     5.543717    4.801000   10.526426    ( 0.0000,  0.0000,  0.0000)
  26 Pt     8.315576    4.801000   10.526426    ( 0.0000,  0.0000,  0.0000)

Unit cell:
           periodic     x           y           z      points  spacing
  1. axis:    yes    8.315576    0.000000    0.000000    42     0.1715
  2. axis:    yes    4.157788    7.201500    0.000000    42     0.1715
  3. axis:    no     0.000000    0.000000   16.526426    81     0.2040

  Lengths:   8.315576   8.315576  16.526426
  Angles:   90.000000  90.000000  60.000000

Effective grid spacing dv^(1/3) = 0.1906

                     log10-error:    total        iterations:
           time      wfs    density  energy       fermi  poisson
iter:   1  16:00:02  +0.42   +inf  -173.434307    3             
iter:   2  16:00:11  -1.20  -1.42  -171.155250    35            
iter:   3  16:00:21  -1.79  -1.46  -166.835617    36            
iter:   4  16:00:30  -1.38  -1.59  -162.645606    36            
iter:   5  16:00:40  -1.88  -2.00  -163.206679    3             
iter:   6  16:00:49  -2.83  -2.03  -162.687289    4             
iter:   7  16:00:58  -2.81  -2.17  -162.350841    4             
iter:   8  16:01:08  -3.81  -2.32  -162.343084    3             
iter:   9  16:01:17  -2.95  -2.34  -162.323535    3             
iter:  10  16:01:27  -3.04  -2.72  -162.326819    4             
iter:  11  16:01:36  -4.01  -2.84  -162.304597    3             
iter:  12  16:01:46  -4.66  -3.15  -162.308721    3             
iter:  13  16:01:55  -4.68  -3.01  -162.306548    3             
iter:  14  16:02:04  -5.23  -3.16  -162.307956    3             
iter:  15  16:02:14  -4.55  -3.16  -162.307308    3             
iter:  16  16:02:23  -4.73  -3.36  -162.307153    3             
iter:  17  16:02:33  -5.73  -3.88  -162.306987    3             
iter:  18  16:02:42  -6.14  -3.98  -162.306935    3             
iter:  19  16:02:51  -6.57  -4.06  -162.307016    2             
iter:  20  16:03:00  -6.83  -4.15  -162.307060    2             
iter:  21  16:03:10  -7.04  -4.29  -162.306994    2             
iter:  22  16:03:19  -7.00  -4.45  -162.307006    2             
iter:  23  16:03:28  -7.19  -4.57  -162.306908    2             
iter:  24  16:03:38  -8.31  -4.85  -162.306904    2             

Converged after 24 iterations.

Dipole moment: (-0.187355, -0.108169, 0.000023) |e|*Ang

Energy contributions relative to reference atoms: (reference = -13510134.794721)

Kinetic:       -227.798853
Potential:     +168.041478
External:        +0.000000
XC:             -86.974502
Entropy (-ST):   -1.731696
Local:          -14.709178
--------------------------
Free energy:   -163.172752
Extrapolated:  -162.306904

Fermi level: 1.57180

Showing only first 2 kpts
 Kpt  Band  Eigenvalues  Occupancy
  0   214      1.50475    0.16540
  0   215      1.50475    0.16540
  0   216      1.52606    0.15310
  0   217      1.57151    0.12518

  1   214      1.31798    0.23169
  1   215      1.33959    0.22767
  1   216      1.39050    0.21493
  1   217      1.39051    0.21493


No gap

Forces in eV/Ang:
  0 Pt    0.00003    0.00002   -0.48791
  1 Pt    0.00000    0.00002   -0.48795
  2 Pt   -0.00003    0.00002   -0.48791
  3 Pt    0.00002   -0.00001   -0.48795
  4 Pt   -0.00002   -0.00001   -0.48795
  5 Pt    0.00000   -0.00002   -0.48789
  6 Pt    0.00000   -0.00004   -0.48791
  7 Pt   -0.00002    0.00001   -0.48789
  8 Pt    0.00002    0.00001   -0.48789
  9 Pt    0.00000    0.00003    0.00012
 10 Pt   -0.00004   -0.00002    0.00011
 11 Pt    0.00004   -0.00002    0.00011
 12 Pt    0.00001   -0.00001    0.00010
 13 Pt   -0.00000    0.00005    0.00011
 14 Pt   -0.00001   -0.00001    0.00010
 15 Pt   -0.00002   -0.00001    0.00012
 16 Pt    0.00002   -0.00001    0.00012
 17 Pt    0.00000    0.00001    0.00010
 18 Pt    0.00000    0.00000    0.48730
 19 Pt    0.00001    0.00002    0.48745
 20 Pt   -0.00001    0.00002    0.48745
 21 Pt    0.00002   -0.00000    0.48745
 22 Pt    0.00000    0.00000    0.48741
 23 Pt   -0.00002   -0.00000    0.48745
 24 Pt    0.00001   -0.00002    0.48745
 25 Pt   -0.00001   -0.00002    0.48745
 26 Pt    0.00000    0.00000    0.48733

System changes: positions 

Initializing position-dependent things.

Density initialized from wave functions
                                            
                                            
                                            
                                            
                                            
                 Pt     Pt     Pt           
            Pt     Pt     Pt                
       Pt     Pt  Pt Pt  Pt    Pt           
             Pt     Pt     Pt               
        Pt     Pt     Pt                    
                     Pt     Pt    Pt        
                Pt     Pt     Pt            
                                            
           Pt     Pt     Pt                 
                                            
                                            
                                            
                                            

Positions:
   0 Pt     1.385936    0.800170    5.905672    ( 0.0000,  0.0000,  0.0000)
   1 Pt     4.157788    0.800170    5.905665    ( 0.0000,  0.0000,  0.0000)
   2 Pt     6.929640    0.800170    5.905672    ( 0.0000,  0.0000,  0.0000)
   3 Pt     2.771862    3.200665    5.905665    ( 0.0000,  0.0000,  0.0000)
   4 Pt     5.543714    3.200665    5.905665    ( 0.0000,  0.0000,  0.0000)
   5 Pt     8.315576    3.200663    5.905676    ( 0.0000,  0.0000,  0.0000)
   6 Pt     4.157788    5.601159    5.905672    ( 0.0000,  0.0000,  0.0000)
   7 Pt     6.929644    5.601168    5.905676    ( 0.0000,  0.0000,  0.0000)
   8 Pt     9.701508    5.601168    5.905676    ( 0.0000,  0.0000,  0.0000)
   9 Pt    -0.000000    1.600338    8.263236    ( 0.0000,  0.0000,  0.0000)
  10 Pt     2.771851    1.600329    8.263234    ( 0.0000,  0.0000,  0.0000)
  11 Pt     5.543725    1.600329    8.263234    ( 0.0000,  0.0000,  0.0000)
  12 Pt     1.385932    4.000832    8.263232    ( 0.0000,  0.0000,  0.0000)
  13 Pt     4.157788    4.000842    8.263234    ( 0.0000,  0.0000,  0.0000)
  14 Pt     6.929644    4.000832    8.263232    ( 0.0000,  0.0000,  0.0000)
  15 Pt     2.771854    6.401331    8.263236    ( 0.0000,  0.0000,  0.0000)
  16 Pt     5.543721    6.401331    8.263236    ( 0.0000,  0.0000,  0.0000)
  17 Pt     8.315576    6.401336    8.263232    ( 0.0000,  0.0000,  0.0000)
  18 Pt     0.000000    0.000000   10.620636    ( 0.0000,  0.0000,  0.0000)
  19 Pt     2.771861    0.000004   10.620666    ( 0.0000,  0.0000,  0.0000)
  20 Pt     5.543715    0.000004   10.620666    ( 0.0000,  0.0000,  0.0000)
  21 Pt     1.385934    2.400500   10.620666    ( 0.0000,  0.0000,  0.0000)
  22 Pt     4.157788    2.400500   10.620657    ( 0.0000,  0.0000,  0.0000)
  23 Pt     6.929642    2.400500   10.620666    ( 0.0000,  0.0000,  0.0000)
  24 Pt     2.771861    4.800996   10.620666    ( 0.0000,  0.0000,  0.0000)
  25 Pt     5.543715    4.800996   10.620666    ( 0.0000,  0.0000,  0.0000)
  26 Pt     8.315576    4.801000   10.620642    ( 0.0000,  0.0000,  0.0000)

Unit cell:
           periodic     x           y           z      points  spacing
  1. axis:    yes    8.315576    0.000000    0.000000    42     0.1715
  2. axis:    yes    4.157788    7.201500    0.000000    42     0.1715
  3. axis:    no     0.000000    0.000000   16.526426    81     0.2040

  Lengths:   8.315576   8.315576  16.526426
  Angles:   90.000000  90.000000  60.000000

Effective grid spacing dv^(1/3) = 0.1906

                     log10-error:    total        iterations:
           time      wfs    density  energy       fermi  poisson
iter:   1  16:03:50  -0.67   +inf  -183.789842    38            
iter:   2  16:03:59  -1.53  -1.43  -166.148646    36            
iter:   3  16:04:09  -1.37  -1.69  -164.762420    37            
iter:   4  16:04:18  -2.44  -2.05  -165.655230    3             
iter:   5  16:04:28  -3.41  -1.98  -165.657608    2             
iter:   6  16:04:37  -3.97  -1.98  -165.404189    3             
iter:   7  16:04:47  -2.14  -2.00  -162.893617    4             
iter:   8  16:04:57  -2.95  -2.27  -162.729115    4             
iter:   9  16:05:06  -3.72  -2.52  -162.681902    3             
iter:  10  16:05:16  -4.65  -2.65  -162.677117    3             
iter:  11  16:05:25  -3.65  -2.66  -162.674051    4             
iter:  12  16:05:35  -4.15  -2.80  -162.659476    4             
iter:  13  16:05:44  -4.85  -3.09  -162.659463    3             
iter:  14  16:05:54  -4.45  -3.12  -162.665325    3             
iter:  15  16:06:03  -5.01  -3.24  -162.663811    3             
iter:  16  16:06:13  -5.18  -3.47  -162.662710    3             
iter:  17  16:06:22  -5.91  -3.69  -162.662511    3             
iter:  18  16:06:32  -5.85  -3.73  -162.662266    3             
iter:  19  16:06:41  -6.09  -3.91  -162.662097    3             
iter:  20  16:06:50  -6.18  -4.13  -162.662178    3             
iter:  21  16:07:00  -7.15  -4.10  -162.662168    2             
iter:  22  16:07:09  -6.99  -4.12  -162.662138    3             
iter:  23  16:07:19  -7.84  -4.20  -162.662113    2             

Converged after 23 iterations.

Dipole moment: (-0.123663, -0.071397, -0.000262) |e|*Ang

Energy contributions relative to reference atoms: (reference = -13510134.794721)

Kinetic:       -309.289247
Potential:     +237.725262
External:        +0.000000
XC:             -75.708802
Entropy (-ST):   -1.667682
Local:          -14.555485
--------------------------
Free energy:   -163.495954
Extrapolated:  -162.662113

Fermi level: 1.49628

Showing only first 2 kpts
 Kpt  Band  Eigenvalues  Occupancy
  0   214      1.42841    0.16586
  0   215      1.43887    0.15993
  0   216      1.43888    0.15992
  0   217      1.45108    0.15278

  1   214      1.27253    0.22589
  1   215      1.34285    0.20566
  1   216      1.35435    0.20131
  1   217      1.35435    0.20131


No gap

Forces in eV/Ang:
  0 Pt   -0.00006   -0.00004    0.09007
  1 Pt    0.00000   -0.00003    0.09011
  2 Pt    0.00006   -0.00004    0.09007
  3 Pt   -0.00002    0.00001    0.09011
  4 Pt    0.00002    0.00001    0.09011
  5 Pt   -0.00000    0.00001    0.09007
  6 Pt    0.00000    0.00007    0.09007
  7 Pt    0.00001   -0.00001    0.09007
  8 Pt   -0.00001   -0.00001    0.09007
  9 Pt    0.00000   -0.00004   -0.00149
 10 Pt    0.00011    0.00006   -0.00147
 11 Pt   -0.00011    0.00006   -0.00147
 12 Pt    0.00000   -0.00000   -0.00146
 13 Pt    0.00000   -0.00012   -0.00147
 14 Pt   -0.00000   -0.00000   -0.00146
 15 Pt    0.00003    0.00002   -0.00149
 16 Pt   -0.00003    0.00002   -0.00149
 17 Pt   -0.00000    0.00000   -0.00146
 18 Pt    0.00000    0.00000   -0.08756
 19 Pt   -0.00001   -0.00004   -0.08767
 20 Pt    0.00001   -0.00004   -0.08767
 21 Pt   -0.00004    0.00001   -0.08767
 22 Pt    0.00000    0.00000   -0.08765
 23 Pt    0.00004    0.00001   -0.08767
 24 Pt   -0.00003    0.00003   -0.08767
 25 Pt    0.00003    0.00003   -0.08767
 26 Pt    0.00000    0.00000   -0.08759

System changes: positions 

Initializing position-dependent things.

Density initialized from wave functions
                                            
                                            
                                            
                                            
                                            
                 Pt     Pt     Pt           
            Pt     Pt     Pt                
       Pt     Pt  Pt Pt  Pt    Pt           
             Pt     Pt     Pt               
        Pt     Pt     Pt                    
                     Pt     Pt    Pt        
                Pt     Pt     Pt            
                                            
           Pt     Pt     Pt                 
                                            
                                            
                                            
                                            

Positions:
   0 Pt     1.385913    0.800157    5.926015    ( 0.0000,  0.0000,  0.0000)
   1 Pt     4.157788    0.800161    5.926020    ( 0.0000,  0.0000,  0.0000)
   2 Pt     6.929663    0.800157    5.926015    ( 0.0000,  0.0000,  0.0000)
   3 Pt     2.771854    3.200669    5.926020    ( 0.0000,  0.0000,  0.0000)
   4 Pt     5.543722    3.200669    5.926020    ( 0.0000,  0.0000,  0.0000)
   5 Pt     8.315576    3.200668    5.926019    ( 0.0000,  0.0000,  0.0000)
   6 Pt     4.157788    5.601186    5.926015    ( 0.0000,  0.0000,  0.0000)
   7 Pt     6.929647    5.601166    5.926019    ( 0.0000,  0.0000,  0.0000)
   8 Pt     9.701504    5.601166    5.926019    ( 0.0000,  0.0000,  0.0000)
   9 Pt    -0.000000    1.600325    8.262687    ( 0.0000,  0.0000,  0.0000)
  10 Pt     2.771890    1.600351    8.262692    ( 0.0000,  0.0000,  0.0000)
  11 Pt     5.543686    1.600351    8.262692    ( 0.0000,  0.0000,  0.0000)
  12 Pt     1.385933    4.000831    8.262693    ( 0.0000,  0.0000,  0.0000)
  13 Pt     4.157788    4.000797    8.262692    ( 0.0000,  0.0000,  0.0000)
  14 Pt     6.929643    4.000831    8.262693    ( 0.0000,  0.0000,  0.0000)
  15 Pt     2.771866    6.401337    8.262687    ( 0.0000,  0.0000,  0.0000)
  16 Pt     5.543710    6.401337    8.262687    ( 0.0000,  0.0000,  0.0000)
  17 Pt     8.315576    6.401338    8.262693    ( 0.0000,  0.0000,  0.0000)
  18 Pt     0.000000    0.000000   10.601208    ( 0.0000,  0.0000,  0.0000)
  19 Pt     2.771859   -0.000010   10.601204    ( 0.0000,  0.0000,  0.0000)
  20 Pt     5.543717   -0.000010   10.601204    ( 0.0000,  0.0000,  0.0000)
  21 Pt     1.385920    2.400505   10.601204    ( 0.0000,  0.0000,  0.0000)
  22 Pt     4.157788    2.400500   10.601198    ( 0.0000,  0.0000,  0.0000)
  23 Pt     6.929655    2.400505   10.601204    ( 0.0000,  0.0000,  0.0000)
  24 Pt     2.771849    4.801005   10.601204    ( 0.0000,  0.0000,  0.0000)
  25 Pt     5.543726    4.801005   10.601204    ( 0.0000,  0.0000,  0.0000)
  26 Pt     8.315576    4.801000   10.601205    ( 0.0000,  0.0000,  0.0000)

Unit cell:
           periodic     x           y           z      points  spacing
  1. axis:    yes    8.315576    0.000000    0.000000    42     0.1715
  2. axis:    yes    4.157788    7.201500    0.000000    42     0.1715
  3. axis:    no     0.000000    0.000000   16.526426    81     0.2040

  Lengths:   8.315576   8.315576  16.526426
  Angles:   90.000000  90.000000  60.000000

Effective grid spacing dv^(1/3) = 0.1906

                     log10-error:    total        iterations:
           time      wfs    density  energy       fermi  poisson
iter:   1  16:07:31  -2.09   +inf  -163.610037    4             
iter:   2  16:07:41  -2.68  -2.06  -162.708399    4             
iter:   3  16:07:50  -3.53  -2.61  -162.711981    3             
iter:   4  16:08:00  -4.26  -2.63  -162.675315    3             
iter:   5  16:08:09  -4.03  -2.82  -162.662550    3             
iter:   6  16:08:18  -4.08  -3.04  -162.659264    3             
iter:   7  16:08:28  -5.01  -3.22  -162.662021    3             
iter:   8  16:08:37  -5.27  -3.58  -162.663877    3             
iter:   9  16:08:47  -6.08  -3.74  -162.663431    3             
iter:  10  16:08:56  -6.27  -3.83  -162.663589    2             
iter:  11  16:09:06  -5.95  -3.82  -162.662820    3             
iter:  12  16:09:15  -6.87  -4.27  -162.662936    2             
iter:  13  16:09:25  -7.51  -4.39  -162.662862    2             

Converged after 13 iterations.

Dipole moment: (-0.132067, -0.076249, -0.000321) |e|*Ang

Energy contributions relative to reference atoms: (reference = -13510134.794721)

Kinetic:       -294.831719
Potential:     +225.415336
External:        +0.000000
XC:             -77.831371
Entropy (-ST):   -1.684605
Local:          -14.572805
--------------------------
Free energy:   -163.505164
Extrapolated:  -162.662862

Fermi level: 1.51037

Showing only first 2 kpts
 Kpt  Band  Eigenvalues  Occupancy
  0   214      1.44835    0.16257
  0   215      1.46168    0.15484
  0   216      1.46169    0.15484
  0   217      1.46351    0.15376

  1   214      1.27413    0.22848
  1   215      1.34259    0.21065
  1   216      1.36506    0.20262
  1   217      1.36510    0.20260


No gap

Forces in eV/Ang:
  0 Pt    0.00022    0.00013   -0.03306
  1 Pt    0.00000    0.00011   -0.03317
  2 Pt   -0.00022    0.00013   -0.03306
  3 Pt    0.00009   -0.00005   -0.03317
  4 Pt   -0.00009   -0.00005   -0.03317
  5 Pt   -0.00000   -0.00000   -0.03303
  6 Pt   -0.00000   -0.00025   -0.03306
  7 Pt   -0.00000    0.00000   -0.03303
  8 Pt    0.00000    0.00000   -0.03303
  9 Pt    0.00000    0.00007    0.00857
 10 Pt   -0.00045   -0.00026    0.00849
 11 Pt    0.00045   -0.00026    0.00849
 12 Pt   -0.00011    0.00006    0.00848
 13 Pt    0.00000    0.00051    0.00849
 14 Pt    0.00011    0.00006    0.00848
 15 Pt   -0.00006   -0.00004    0.00857
 16 Pt    0.00006   -0.00004    0.00857
 17 Pt    0.00000   -0.00013    0.00848
 18 Pt    0.00000    0.00000    0.02424
 19 Pt   -0.00001    0.00014    0.02420
 20 Pt    0.00001    0.00014    0.02420
 21 Pt    0.00012   -0.00008    0.02420
 22 Pt    0.00000    0.00000    0.02454
 23 Pt   -0.00012   -0.00008    0.02420
 24 Pt    0.00013   -0.00007    0.02420
 25 Pt   -0.00013   -0.00007    0.02420
 26 Pt   -0.00000    0.00000    0.02427

System changes: positions 

Initializing position-dependent things.

Density initialized from wave functions
                                            
                                            
                                            
                                            
                                            
                 Pt     Pt     Pt           
            Pt     Pt     Pt                
       Pt     Pt  Pt Pt  Pt    Pt           
             Pt     Pt     Pt               
        Pt     Pt     Pt                    
                     Pt     Pt    Pt        
                Pt     Pt     Pt            
                                            
           Pt     Pt     Pt                 
                                            
                                            
                                            
                                            

Positions:
   0 Pt     1.385997    0.800206    5.919324    ( 0.0000,  0.0000,  0.0000)
   1 Pt     4.157788    0.800203    5.919284    ( 0.0000,  0.0000,  0.0000)
   2 Pt     6.929579    0.800206    5.919324    ( 0.0000,  0.0000,  0.0000)
   3 Pt     2.771890    3.200649    5.919284    ( 0.0000,  0.0000,  0.0000)
   4 Pt     5.543686    3.200649    5.919284    ( 0.0000,  0.0000,  0.0000)
   5 Pt     8.315576    3.200667    5.919335    ( 0.0000,  0.0000,  0.0000)
   6 Pt     4.157788    5.601088    5.919324    ( 0.0000,  0.0000,  0.0000)
   7 Pt     6.929647    5.601166    5.919335    ( 0.0000,  0.0000,  0.0000)
   8 Pt     9.701505    5.601166    5.919335    ( 0.0000,  0.0000,  0.0000)
   9 Pt    -0.000000    1.600353    8.265943    ( 0.0000,  0.0000,  0.0000)
  10 Pt     2.771719    1.600253    8.265918    ( 0.0000,  0.0000,  0.0000)
  11 Pt     5.543856    1.600253    8.265918    ( 0.0000,  0.0000,  0.0000)
  12 Pt     1.385892    4.000855    8.265918    ( 0.0000,  0.0000,  0.0000)
  13 Pt     4.157788    4.000994    8.265918    ( 0.0000,  0.0000,  0.0000)
  14 Pt     6.929683    4.000855    8.265918    ( 0.0000,  0.0000,  0.0000)
  15 Pt     2.771841    6.401323    8.265943    ( 0.0000,  0.0000,  0.0000)
  16 Pt     5.543734    6.401323    8.265943    ( 0.0000,  0.0000,  0.0000)
  17 Pt     8.315576    6.401291    8.265918    ( 0.0000,  0.0000,  0.0000)
  18 Pt     0.000000    0.000000   10.604508    ( 0.0000,  0.0000,  0.0000)
  19 Pt     2.771857    0.000045   10.604493    ( 0.0000,  0.0000,  0.0000)
  20 Pt     5.543719    0.000045   10.604493    ( 0.0000,  0.0000,  0.0000)
  21 Pt     1.385967    2.400476   10.604493    ( 0.0000,  0.0000,  0.0000)
  22 Pt     4.157788    2.400500   10.604614    ( 0.0000,  0.0000,  0.0000)
  23 Pt     6.929609    2.400476   10.604493    ( 0.0000,  0.0000,  0.0000)
  24 Pt     2.771898    4.800979   10.604493    ( 0.0000,  0.0000,  0.0000)
  25 Pt     5.543678    4.800979   10.604493    ( 0.0000,  0.0000,  0.0000)
  26 Pt     8.315576    4.801000   10.604519    ( 0.0000,  0.0000,  0.0000)

Unit cell:
           periodic     x           y           z      points  spacing
  1. axis:    yes    8.315576    0.000000    0.000000    42     0.1715
  2. axis:    yes    4.157788    7.201500    0.000000    42     0.1715
  3. axis:    no     0.000000    0.000000   16.526426    81     0.2040

  Lengths:   8.315576   8.315576  16.526426
  Angles:   90.000000  90.000000  60.000000

Effective grid spacing dv^(1/3) = 0.1906

                     log10-error:    total        iterations:
           time      wfs    density  energy       fermi  poisson
iter:   1  16:09:37  -3.12   +inf  -162.809418    4             
iter:   2  16:09:47  -3.08  -2.45  -162.950634    4             
iter:   3  16:09:57  -3.73  -2.39  -162.671667    3             
iter:   4  16:10:06  -5.27  -3.09  -162.668305    3             
iter:   5  16:10:15  -4.79  -3.32  -162.666148    3             
iter:   6  16:10:25  -5.51  -3.63  -162.666519    3             
iter:   7  16:10:35  -6.32  -3.69  -162.666110    3             
iter:   8  16:10:44  -6.01  -3.82  -162.665069    2             
iter:   9  16:10:54  -6.80  -4.11  -162.665023    2             
iter:  10  16:11:03  -7.17  -4.19  -162.665127    2             
iter:  11  16:11:13  -7.17  -4.20  -162.665017    2             
iter:  12  16:11:22  -7.16  -4.47  -162.665023    2             
iter:  13  16:11:32  -7.85  -4.74  -162.665057    2             

Converged after 13 iterations.

Dipole moment: (-0.135824, -0.078418, 0.001754) |e|*Ang

Energy contributions relative to reference atoms: (reference = -13510134.794721)

Kinetic:       -298.496879
Potential:     +228.568446
External:        +0.000000
XC:             -77.316490
Entropy (-ST):   -1.681140
Local:          -14.579564
--------------------------
Free energy:   -163.505627
Extrapolated:  -162.665057

Fermi level: 1.50792

Showing only first 2 kpts
 Kpt  Band  Eigenvalues  Occupancy
  0   214      1.44476    0.16321
  0   215      1.45852    0.15526
  0   216      1.45855    0.15524
  0   217      1.45997    0.15441

  1   214      1.27478    0.22786
  1   215      1.34354    0.20951
  1   216      1.36450    0.20189
  1   217      1.36463    0.20184


No gap

Forces in eV/Ang:
  0 Pt   -0.00087   -0.00050    0.01970
  1 Pt   -0.00000   -0.00031    0.02018
  2 Pt    0.00087   -0.00050    0.01970
  3 Pt   -0.00027    0.00015    0.02018
  4 Pt    0.00027    0.00015    0.02018
  5 Pt   -0.00000   -0.00007    0.01970
  6 Pt   -0.00000    0.00100    0.01970
  7 Pt   -0.00006    0.00003    0.01970
  8 Pt    0.00006    0.00003    0.01970
  9 Pt    0.00000   -0.00029   -0.04231
 10 Pt    0.00223    0.00129   -0.04196
 11 Pt   -0.00223    0.00129   -0.04196
 12 Pt    0.00061   -0.00035   -0.04201
 13 Pt    0.00000   -0.00257   -0.04196
 14 Pt   -0.00061   -0.00035   -0.04201
 15 Pt    0.00026    0.00015   -0.04231
 16 Pt   -0.00026    0.00015   -0.04231
 17 Pt   -0.00000    0.00071   -0.04201
 18 Pt    0.00000    0.00000    0.01786
 19 Pt    0.00014   -0.00049    0.01805
 20 Pt   -0.00014   -0.00049    0.01805
 21 Pt   -0.00036    0.00037    0.01805
 22 Pt   -0.00000    0.00000    0.01665
 23 Pt    0.00036    0.00037    0.01805
 24 Pt   -0.00050    0.00012    0.01805
 25 Pt    0.00050    0.00012    0.01805
 26 Pt   -0.00000    0.00000    0.01786

System changes: positions 

Initializing position-dependent things.

Density initialized from wave functions
                                            
                                            
                                            
                                            
                                            
                 Pt     Pt     Pt           
            Pt     Pt     Pt                
       Pt     Pt  Pt Pt  Pt    Pt           
             Pt     Pt     Pt               
        Pt     Pt     Pt                    
                     Pt     Pt    Pt        
                Pt     Pt     Pt            
                                            
           Pt     Pt     Pt                 
                                            
                                            
                                            
                                            

Positions:
   0 Pt     1.385936    0.800171    5.920678    ( 0.0000,  0.0000,  0.0000)
   1 Pt     4.157788    0.800181    5.920671    ( 0.0000,  0.0000,  0.0000)
   2 Pt     6.929640    0.800171    5.920678    ( 0.0000,  0.0000,  0.0000)
   3 Pt     2.771871    3.200660    5.920671    ( 0.0000,  0.0000,  0.0000)
   4 Pt     5.543705    3.200660    5.920671    ( 0.0000,  0.0000,  0.0000)
   5 Pt     8.315576    3.200663    5.920689    ( 0.0000,  0.0000,  0.0000)
   6 Pt     4.157788    5.601159    5.920678    ( 0.0000,  0.0000,  0.0000)
   7 Pt     6.929643    5.601168    5.920689    ( 0.0000,  0.0000,  0.0000)
   8 Pt     9.701508    5.601168    5.920689    ( 0.0000,  0.0000,  0.0000)
   9 Pt    -0.000000    1.600332    8.262995    ( 0.0000,  0.0000,  0.0000)
  10 Pt     2.771875    1.600343    8.262995    ( 0.0000,  0.0000,  0.0000)
  11 Pt     5.543701    1.600343    8.262995    ( 0.0000,  0.0000,  0.0000)
  12 Pt     1.385935    4.000830    8.262991    ( 0.0000,  0.0000,  0.0000)
  13 Pt     4.157788    4.000815    8.262995    ( 0.0000,  0.0000,  0.0000)
  14 Pt     6.929641    4.000830    8.262991    ( 0.0000,  0.0000,  0.0000)
  15 Pt     2.771859    6.401334    8.262995    ( 0.0000,  0.0000,  0.0000)
  16 Pt     5.543716    6.401334    8.262995    ( 0.0000,  0.0000,  0.0000)
  17 Pt     8.315576    6.401339    8.262991    ( 0.0000,  0.0000,  0.0000)
  18 Pt     0.000000    0.000000   10.605792    ( 0.0000,  0.0000,  0.0000)
  19 Pt     2.771866    0.000010   10.605790    ( 0.0000,  0.0000,  0.0000)
  20 Pt     5.543709    0.000010   10.605790    ( 0.0000,  0.0000,  0.0000)
  21 Pt     1.385942    2.400502   10.605790    ( 0.0000,  0.0000,  0.0000)
  22 Pt     4.157788    2.400500   10.605813    ( 0.0000,  0.0000,  0.0000)
  23 Pt     6.929634    2.400502   10.605790    ( 0.0000,  0.0000,  0.0000)
  24 Pt     2.771863    4.800988   10.605790    ( 0.0000,  0.0000,  0.0000)
  25 Pt     5.543713    4.800988   10.605790    ( 0.0000,  0.0000,  0.0000)
  26 Pt     8.315576    4.801000   10.605803    ( 0.0000,  0.0000,  0.0000)

Unit cell:
           periodic     x           y           z      points  spacing
  1. axis:    yes    8.315576    0.000000    0.000000    42     0.1715
  2. axis:    yes    4.157788    7.201500    0.000000    42     0.1715
  3. axis:    no     0.000000    0.000000   16.526426    81     0.2040

  Lengths:   8.315576   8.315576  16.526426
  Angles:   90.000000  90.000000  60.000000

Effective grid spacing dv^(1/3) = 0.1906

                     log10-error:    total        iterations:
           time      wfs    density  energy       fermi  poisson
iter:   1  16:11:45  -3.69   +inf  -162.745172    3             
.030509    6.981046    0.000000    40     0.1745
  3. axis:    no     0.000000    0.000000   16.387862    81     0.2023

  Lengths:   8.061017   8.061017  16.387862
  Angles:   90.000000  90.000000  60.000000

Effective grid spacing dv^(1/3) = 0.1923

                     log10-error:    total        iterations:
           time      wfs    density  energy       fermi  poisson
iter:   1  15:51:47  -3.59   +inf  -183.411287    3             
iter:   2  15:51:55  -2.90  -2.42  -184.465691    3             
iter:   3  15:52:03  -3.30  -2.00  -183.251290    3             
iter:   4  15:52:11  -4.69  -3.36  -183.251049    3             
iter:   5  15:52:19  -5.26  -3.46  -183.250773    2             
iter:   6  15:52:28  -5.23  -3.65  -183.250509    2             
iter:   7  15:52:36  -6.04  -3.69  -183.250319    2             
iter:   8  15:52:44  -6.70  -3.95  -183.250290    2             
iter:   9  15:52:52  -6.97  -4.20  -183.250291    2             
iter:  10  15:53:00  -6.98  -4.20  -183.250274    2             
iter:  11  15:53:08  -7.53  -4.49  -183.250274    2             

Converged after 11 iterations.

Dipole moment: (-0.250186, -0.144445, -0.002851) |e|*Ang

Energy contributions relative to reference atoms: (reference = -3513635.469005)

Kinetic:       -121.549105
Potential:      +51.611822
External:        +0.000000
XC:            -110.332011
Entropy (-ST):   -1.582902
Local:           -2.189530
--------------------------
Free energy:   -184.041725
Extrapolated:  -183.250274

Fermi level: 1.77247

Showing only first 2 kpts
 Kpt  Band  Eigenvalues  Occupancy
  0   200      1.74386    0.14276
  0   201      1.78099    0.11968
  0   202      1.78100    0.11967
  0   203      1.80680    0.10375

  1   200      1.69258    0.17244
  1   201      1.69258    0.17244
  1   202      1.73670    0.14713
  1   203      1.79924    0.10837


No gap
