
  ___ ___ ___ _ _ _  
 |   |   |_  | | | | 
 | | | | | . | | | | 
 |__ |  _|___|_____|  19.8.1
 |___|_|             

User:   ermag@vera44-2
Date:   Thu Mar 10 22:18:45 2022
Arch:   x86_64
Pid:    276546
Python: 3.7.2
gpaw:   /apps/Vera/software/GPAW/19.8.1-intel-2019a-Python-3.7.2/lib/python3.7/site-packages/gpaw
_gpaw:  /apps/Vera/software/GPAW/19.8.1-intel-2019a-Python-3.7.2/bin/
        gpaw-python
ase:    /apps/Vera/software/ASE/3.18.0-intel-2019a-Python-3.7.2/lib/python3.7/site-packages/ase (version 3.18.0)
numpy:  /apps/Vera/software/SciPy-bundle/2019.03-intel-2019a/lib/python3.7/site-packages/numpy (version 1.16.2)
scipy:  /apps/Vera/software/SciPy-bundle/2019.03-intel-2019a/lib/python3.7/site-packages/scipy (version 1.2.1)
libxc:  4.3.4
units:  Angstrom and eV
cores:  64

Input parameters:
  kpts: [4 4 1]
  mode: {ecut: 450.00000000000006,
         gammacentered: False,
         name: pw}
  xc: PBE

System changes: positions, numbers, cell, pbc, initial_charges, initial_magmoms 

Initialize ...

Rh-setup:
  name: Rhodium
  id: 4e1d209aee696a641de1ffa1459b299f
  Z: 45
  valence: 15
  core: 30
  charge: 0.0
  file: /apps/Common/software/GPAW-setups/0.9.20000/Rh.PBE.gz
  compensation charges: gauss, rc=0.38, lmax=2
  cutoffs: 2.48(filt), 2.35(core),
  valence states:
                energy  radius
    5s(1.00)    -4.297   1.270
    4p(6.00)   -50.429   1.381
    5p(0.00)    -0.852   1.381
    4d(8.00)    -5.942   1.244
    *s          22.915   1.270
    *d          21.270   1.244

  Using partial waves for Rh as LCAO basis

C-setup:
  name: Carbon
  id: 4aa54d4b901d75f77cc0ea3eec22967b
  Z: 6
  valence: 4
  core: 2
  charge: 0.0
  file: /apps/Common/software/GPAW-setups/0.9.20000/C.PBE.gz
  compensation charges: gauss, rc=0.20, lmax=2
  cutoffs: 1.14(filt), 1.14(core),
  valence states:
                energy  radius
    2s(2.00)   -13.751   0.635
    2p(2.00)    -5.284   0.635
    *s          13.461   0.635
    *p          21.927   0.635
    *d           0.000   0.635

  Using partial waves for C as LCAO basis

O-setup:
  name: Oxygen
  id: 32ecd46bf208036f09c70b0ec9a88b78
  Z: 8
  valence: 6
  core: 2
  charge: 0.0
  file: /apps/Common/software/GPAW-setups/0.9.20000/O.PBE.gz
  compensation charges: gauss, rc=0.21, lmax=2
  cutoffs: 1.17(filt), 0.83(core),
  valence states:
                energy  radius
    2s(2.00)   -23.961   0.688
    2p(4.00)    -9.029   0.598
    *s           3.251   0.688
    *p          18.182   0.598
    *d           0.000   0.619

  Using partial waves for O as LCAO basis

Reference energy: -3516703.949422

Spin-paired calculation

Occupation numbers:
  Fermi-Dirac: width=0.1000 eV

Convergence criteria:
  Maximum total energy change: 0.0005 eV / electron
  Maximum integral of absolute density change: 0.0001 electrons
  Maximum integral of absolute eigenstate change: 4e-08 eV^2
  Maximum number of iterations: 333

Symmetries present (total): 1

  ( 1  0  0)
  ( 0  1  0)
  ( 0  0  1)

16 k-points: 4 x 4 x 1 Monkhorst-Pack grid
8 k-points in the irreducible part of the Brillouin zone
       k-points in crystal coordinates                weights
   0:     0.12500000   -0.37500000    0.00000000          2/16
   1:     0.12500000   -0.12500000    0.00000000          2/16
   2:     0.12500000    0.12500000    0.00000000          2/16
   3:     0.12500000    0.37500000    0.00000000          2/16
   4:     0.37500000   -0.37500000    0.00000000          2/16
   5:     0.37500000   -0.12500000    0.00000000          2/16
   6:     0.37500000    0.12500000    0.00000000          2/16
   7:     0.37500000    0.37500000    0.00000000          2/16

Wave functions: Plane wave expansion
  Cutoff energy: 450.000 eV
  Number of coefficients (min, max): 19970, 20000
  Pulay-stress correction: 0.000000 eV/Ang^3 (de/decut=0.000000)
  Using FFTW library
  ScaLapack parameters: grid=1x1, blocksize=None
  Wavefunction extrapolation:
    Improved wavefunction reuse through dual PAW basis 

Eigensolver
   Davidson(niter=2, smin=None, normalize=True) 

Densities:
  Coarse grid: 40*40*81 grid
  Fine grid: 80*80*162 grid
  Total Charge: 0.000000 

Density mixing:
  Method: separate
  Backend: pulay
  Linear mixing parameter: 0.05
  Mixing with 5 old densities
  Damping of long wave oscillations: 50 

Hamiltonian:
  XC and Coulomb potentials evaluated on a 80*80*162 grid
  Using the PBE Exchange-Correlation functional
 

XC parameters: PBE with 2 nearest neighbor stencil

Memory estimate:
  Process memory now: 803.38 MiB
  Calculator: 182.26 MiB
    Density: 8.53 MiB
      Arrays: 3.26 MiB
      Localized functions: 3.99 MiB
      Mixer: 1.28 MiB
    Hamiltonian: 2.24 MiB
      Arrays: 2.13 MiB
      XC: 0.00 MiB
      Poisson: 0.00 MiB
      vbar: 0.11 MiB
    Wavefunctions: 171.49 MiB
      Arrays psit_nG: 77.21 MiB
      Eigensolver: 88.51 MiB
      Projections: 0.25 MiB
      Projectors: 0.48 MiB
      PW-descriptor: 5.05 MiB

Total number of cores used: 64
Parallelization over k-points: 8
Domain decomposition: 1 x 2 x 4

Number of atoms: 29
Number of atomic orbitals: 332
Number of bands in calculation: 253
Bands to converge: occupied states only
Number of valence electrons: 415

... initialized

Initializing position-dependent things.

Density initialized from atomic densities
Creating initial wave functions:
  253 bands from LCAO basis set

                                           
                                           
                                           
                                           
                                           
                                           
                    O                      
                    C                      
                Rh     Rh     Rh           
                                           
            Rh   RRh    RRh    Rh          
       Rh    RRh   RRh    Rh               
                                           
        Rh     Rh   RRh    Rh    Rh        
                                           
                Rh    Rh     Rh            
           Rh    Rh     Rh                 
                                           
                                           
                                           
                                           

Positions:
   0 Rh     1.343501    0.775671    6.018424    ( 0.0000,  0.0000,  0.0000)
   1 Rh     4.030509    0.775678    6.018431    ( 0.0000,  0.0000,  0.0000)
   2 Rh     6.717516    0.775671    6.018424    ( 0.0000,  0.0000,  0.0000)
   3 Rh     2.687011    3.102684    6.018431    ( 0.0000,  0.0000,  0.0000)
   4 Rh     5.374006    3.102684    6.018431    ( 0.0000,  0.0000,  0.0000)
   5 Rh     8.061017    3.102681    6.018384    ( 0.0000,  0.0000,  0.0000)
   6 Rh     4.030509    5.429705    6.018424    ( 0.0000,  0.0000,  0.0000)
   7 Rh     6.717509    5.429705    6.018384    ( 0.0000,  0.0000,  0.0000)
   8 Rh     9.404526    5.429705    6.018384    ( 0.0000,  0.0000,  0.0000)
   9 Rh     0.000000    1.551291    8.194547    ( 0.0000,  0.0000,  0.0000)
  10 Rh     2.687011    1.551346    8.194545    ( 0.0000,  0.0000,  0.0000)
  11 Rh     5.374007    1.551346    8.194545    ( 0.0000,  0.0000,  0.0000)
  12 Rh     1.343544    3.878335    8.194517    ( 0.0000,  0.0000,  0.0000)
  13 Rh     4.030509    3.878353    8.194545    ( 0.0000,  0.0000,  0.0000)
  14 Rh     6.717473    3.878335    8.194517    ( 0.0000,  0.0000,  0.0000)
  15 Rh     2.687051    6.205400    8.194547    ( 0.0000,  0.0000,  0.0000)
  16 Rh     5.373966    6.205400    8.194547    ( 0.0000,  0.0000,  0.0000)
  17 Rh     8.061017    6.205421    8.194517    ( 0.0000,  0.0000,  0.0000)
  18 Rh     0.000000    0.000000   10.371277    ( 0.0000,  0.0000,  0.0000)
  19 Rh     2.687012    0.000004   10.371325    ( 0.0000,  0.0000,  0.0000)
  20 Rh     5.374005    0.000004   10.371325    ( 0.0000,  0.0000,  0.0000)
  21 Rh     1.343510    2.327019   10.371325    ( 0.0000,  0.0000,  0.0000)
  22 Rh     4.030509    2.327015   10.371315    ( 0.0000,  0.0000,  0.0000)
  23 Rh     6.717507    2.327019   10.371325    ( 0.0000,  0.0000,  0.0000)
  24 Rh     2.687006    4.654023   10.371325    ( 0.0000,  0.0000,  0.0000)
  25 Rh     5.374011    4.654023   10.371325    ( 0.0000,  0.0000,  0.0000)
  26 Rh     8.061017    4.654031   10.371365    ( 0.0000,  0.0000,  0.0000)
  27 C      4.530509    2.827015   12.371315    ( 0.0000,  0.0000,  0.0000)
  28 O      4.530509    2.827015   13.471315    ( 0.0000,  0.0000,  0.0000)

Unit cell:
           periodic     x           y           z      points  spacing
  1. axis:    yes    8.061017    0.000000    0.000000    40     0.1745
  2. axis:    yes    4.030509    6.981046    0.000000    40     0.1745
  3. axis:    no     0.000000    0.000000   16.387862    81     0.2023

  Lengths:   8.061017   8.061017  16.387862
  Angles:   90.000000  90.000000  60.000000

Effective grid spacing dv^(1/3) = 0.1923

                     log10-error:    total        iterations:
           time      wfs    density  energy       fermi  poisson
iter:   1  00:37:31  +0.32   +inf  -212.376200    3             
iter:   2  00:37:35  -1.27  -1.35  -210.016262    4             
iter:   3  00:37:40  -1.55  -1.37  -210.542068    4             
iter:   4  00:37:45  -0.99  -1.37  -200.438120    34            
iter:   5  00:37:49  -2.36  -1.80  -198.810751    3             
iter:   6  00:37:54  -2.67  -1.99  -198.686051    4             
iter:   7  00:37:58  -2.37  -2.06  -198.639165    4             
iter:   8  00:38:03  -3.15  -2.19  -198.517996    3             
iter:   9  00:38:07  -2.74  -2.30  -198.423834    3             
iter:  10  00:38:12  -3.46  -2.57  -198.411800    3             
iter:  11  00:38:16  -3.80  -2.74  -198.408982    3             
iter:  12  00:38:21  -4.19  -2.83  -198.398876    3             
iter:  13  00:38:25  -4.75  -3.03  -198.398634    2             
iter:  14  00:38:30  -4.66  -3.06  -198.397425    3             
iter:  15  00:38:35  -4.65  -3.21  -198.397917    2             
iter:  16  00:38:39  -5.36  -3.35  -198.398095    2             
iter:  17  00:38:44  -5.65  -3.36  -198.397980    3             
iter:  18  00:38:48  -5.80  -3.42  -198.397998    3             
iter:  19  00:38:53  -5.68  -3.47  -198.397871    3             
iter:  20  00:38:57  -5.49  -3.61  -198.397745    3             
iter:  21  00:39:02  -6.29  -3.84  -198.397745    2             
iter:  22  00:39:06  -6.45  -3.88  -198.397737    2             
iter:  23  00:39:11  -6.55  -3.92  -198.397728    2             
iter:  24  00:39:16  -6.75  -3.95  -198.397709    2             
iter:  25  00:39:20  -6.92  -4.10  -198.397729    2             
iter:  26  00:39:25  -6.71  -4.20  -198.397776    2             
iter:  27  00:39:29  -6.97  -4.37  -198.397803    2             
iter:  28  00:39:34  -7.51  -4.43  -198.397805    2             

Converged after 28 iterations.

Dipole moment: (-0.341737, -0.175483, 0.068713) |e|*Ang

Energy contributions relative to reference atoms: (reference = -3516703.949422)

Kinetic:       -101.148515
Potential:      +30.467277
External:        +0.000000
XC:            -124.783855
Entropy (-ST):   -1.587545
Local:           -2.138940
--------------------------
Free energy:   -199.191577
Extrapolated:  -198.397805

Fermi level: 2.01638

Showing only first 2 kpts
 Kpt  Band  Eigenvalues  Occupancy
  0   205      1.89574    0.19242
  0   206      1.94832    0.16597
  0   207      2.02075    0.12227
  0   208      2.13508    0.05845

  1   205      1.96184    0.15827
  1   206      2.00840    0.12998
  1   207      2.01932    0.12316
  1   208      2.04809    0.10534


No gap

Forces in eV/Ang:
  0 Rh   -0.08571   -0.02867   -0.15956
  1 Rh   -0.00962    0.01436    0.02102
  2 Rh    0.09722   -0.03202   -0.09801
  3 Rh    0.00634   -0.00882    0.01194
  4 Rh   -0.01966   -0.00740    0.01634
  5 Rh    0.00720   -0.05438   -0.03155
  6 Rh    0.01009    0.07911   -0.08069
  7 Rh   -0.04118    0.01853   -0.01424
  8 Rh    0.02254    0.00785    0.00597
  9 Rh   -0.02510    0.02038    0.06839
 10 Rh    0.20170    0.08041    0.24543
 11 Rh   -0.03856   -0.01515   -0.20173
 12 Rh    0.00067    0.00745    0.03147
 13 Rh   -0.00643    0.00256   -0.27374
 14 Rh    0.01380    0.01447   -0.03828
 15 Rh   -0.02887   -0.01723    0.05365
 16 Rh    0.01407   -0.03826    0.06483
 17 Rh    0.00306    0.00929    0.02658
 18 Rh    0.00394    0.02320    0.02155
 19 Rh   -0.09824   -0.16680   -0.06910
 20 Rh    0.08578   -0.21950   -0.08028
 21 Rh   -0.20889   -0.01876   -0.07486
 22 Rh    0.32084    0.41925    2.19378
 23 Rh    0.34608   -0.03784    0.00800
 24 Rh   -0.18822    0.22351   -0.07558
 25 Rh    0.14002    0.25198    0.17681
 26 Rh    0.02771    0.01355   -0.00789
 27 C    -0.82220   -0.80897   -8.65374
 28 O     0.27091    0.26683    7.00585

System changes: positions 

Initializing position-dependent things.

Density initialized from wave functions
                                           
                                           
                                           
                                           
                                           
                                           
                    O                      
                    C                      
                Rh     Rh     Rh           
                                           
            Rh   RRh    RRh    Rh          
       Rh    RRh   RRh    Rh               
                                           
        Rh     Rh   RRh    Rh    Rh        
                                           
                Rh    Rh     Rh            
           Rh    Rh     Rh                 
                                           
                                           
                                           
                                           

Positions:
   0 Rh     1.343108    0.775539    6.017693    ( 0.0000,  0.0000,  0.0000)
   1 Rh     4.030465    0.775744    6.018528    ( 0.0000,  0.0000,  0.0000)
   2 Rh     6.717962    0.775524    6.017975    ( 0.0000,  0.0000,  0.0000)
   3 Rh     2.687040    3.102643    6.018486    ( 0.0000,  0.0000,  0.0000)
   4 Rh     5.373916    3.102650    6.018506    ( 0.0000,  0.0000,  0.0000)
   5 Rh     8.061050    3.102431    6.018239    ( 0.0000,  0.0000,  0.0000)
   6 Rh     4.030555    5.430067    6.018054    ( 0.0000,  0.0000,  0.0000)
   7 Rh     6.717320    5.429790    6.018319    ( 0.0000,  0.0000,  0.0000)
   8 Rh     9.404629    5.429741    6.018411    ( 0.0000,  0.0000,  0.0000)
   9 Rh    -0.000115    1.551385    8.194861    ( 0.0000,  0.0000,  0.0000)
  10 Rh     2.687935    1.551715    8.195669    ( 0.0000,  0.0000,  0.0000)
  11 Rh     5.373830    1.551277    8.193621    ( 0.0000,  0.0000,  0.0000)
  12 Rh     1.343547    3.878369    8.194661    ( 0.0000,  0.0000,  0.0000)
  13 Rh     4.030479    3.878365    8.193291    ( 0.0000,  0.0000,  0.0000)
  14 Rh     6.717537    3.878401    8.194341    ( 0.0000,  0.0000,  0.0000)
  15 Rh     2.686919    6.205321    8.194793    ( 0.0000,  0.0000,  0.0000)
  16 Rh     5.374031    6.205225    8.194844    ( 0.0000,  0.0000,  0.0000)
  17 Rh     8.061031    6.205464    8.194638    ( 0.0000,  0.0000,  0.0000)
  18 Rh     0.000018    0.000106   10.371375    ( 0.0000,  0.0000,  0.0000)
  19 Rh     2.686562   -0.000760   10.371008    ( 0.0000,  0.0000,  0.0000)
  20 Rh     5.374398   -0.001002   10.370957    ( 0.0000,  0.0000,  0.0000)
  21 Rh     1.342553    2.326933   10.370982    ( 0.0000,  0.0000,  0.0000)
  22 Rh     4.031979    2.328936   10.381366    ( 0.0000,  0.0000,  0.0000)
  23 Rh     6.719093    2.326846   10.371361    ( 0.0000,  0.0000,  0.0000)
  24 Rh     2.686144    4.655047   10.370978    ( 0.0000,  0.0000,  0.0000)
  25 Rh     5.374653    4.655177   10.372135    ( 0.0000,  0.0000,  0.0000)
  26 Rh     8.061144    4.654093   10.371329    ( 0.0000,  0.0000,  0.0000)
  27 C      4.526742    2.823309   12.331665    ( 0.0000,  0.0000,  0.0000)
  28 O      4.531750    2.828238   13.503414    ( 0.0000,  0.0000,  0.0000)

Unit cell:
           periodic     x           y           z      points  spacing
  1. axis:    yes    8.061017    0.000000    0.000000    40     0.1745
  2. axis:    yes    4.030509    6.981046    0.000000    40     0.1745
  3. axis:    no     0.000000    0.000000   16.387862    81     0.2023

  Lengths:   8.061017   8.061017  16.387862
  Angles:   90.000000  90.000000  60.000000

Effective grid spacing dv^(1/3) = 0.1923

                     log10-error:    total        iterations:
           time      wfs    density  energy       fermi  poisson
iter:   1  00:39:41  -2.11   +inf  -200.463524    36            
iter:   2  00:39:45  -2.20  -1.98  -203.699486    4             
iter:   3  00:39:50  -2.43  -1.68  -199.475282    3             
iter:   4  00:39:55  -3.13  -2.14  -198.800518    4             
iter:   5  00:39:59  -3.58  -2.62  -198.726119    3             
iter:   6  00:40:04  -4.14  -2.83  -198.710794    3             
iter:   7  00:40:08  -3.79  -2.85  -198.689969    3             
iter:   8  00:40:13  -4.02  -3.16  -198.687666    3             
iter:   9  00:40:17  -5.05  -3.21  -198.686248    3             
iter:  10  00:40:22  -4.73  -3.24  -198.685754    3             
iter:  11  00:40:27  -5.09  -3.25  -198.683450    3             
iter:  12  00:40:31  -5.86  -3.53  -198.683069    3             
iter:  13  00:40:36  -6.38  -3.75  -198.682979    2             
iter:  14  00:40:40  -6.24  -3.87  -198.682976    2             
iter:  15  00:40:45  -6.64  -4.03  -198.682949    2             
iter:  16  00:40:49  -7.10  -4.21  -198.682959    2             
iter:  17  00:40:54  -6.96  -4.29  -198.682977    2             
iter:  18  00:40:59  -7.11  -4.19  -198.682964    2             
iter:  19  00:41:03  -7.59  -4.36  -198.682957    2             

Converged after 19 iterations.

Dipole moment: (-0.136899, -0.078499, -0.101357) |e|*Ang

Energy contributions relative to reference atoms: (reference = -3516703.949422)

Kinetic:       -110.544936
Potential:      +37.934032
External:        +0.000000
XC:            -123.075411
Entropy (-ST):   -1.587236
Local:           -2.203024
--------------------------
Free energy:   -199.476575
Extrapolated:  -198.682957

Fermi level: 1.95039

Showing only first 2 kpts
 Kpt  Band  Eigenvalues  Occupancy
  0   205      1.82907    0.19271
  0   206      1.88299    0.16560
  0   207      1.95795    0.12027
  0   208      2.06969    0.05818

  1   205      1.89600    0.15817
  1   206      1.94156    0.13051
  1   207      1.95432    0.12254
  1   208      1.98240    0.10516


No gap

Forces in eV/Ang:
  0 Rh   -0.09156   -0.02987   -0.15869
  1 Rh   -0.01323    0.01434    0.02506
  2 Rh    0.10507   -0.03501   -0.09769
  3 Rh    0.00362   -0.01314    0.01581
  4 Rh   -0.01835   -0.00826    0.01630
  5 Rh    0.00771   -0.05337   -0.02739
  6 Rh    0.01148    0.08776   -0.08014
  7 Rh   -0.04019    0.01745   -0.00955
  8 Rh    0.02112    0.00673    0.01103
  9 Rh   -0.01940    0.01908    0.07191
 10 Rh    0.20083    0.08215    0.23015
 11 Rh   -0.04620   -0.00583   -0.19075
 12 Rh    0.00246    0.00374    0.02848
 13 Rh   -0.00363   -0.00887   -0.25917
 14 Rh    0.01089    0.01357   -0.03508
 15 Rh   -0.02521   -0.01534    0.05246
 16 Rh    0.01417   -0.03081    0.06227
 17 Rh    0.00103    0.01211    0.02373
 18 Rh    0.00541    0.02369    0.00055
 19 Rh   -0.08829   -0.15077   -0.07951
 20 Rh    0.07917   -0.20384   -0.09027
 21 Rh   -0.19305   -0.01991   -0.08609
 22 Rh    0.30981    0.40208    2.19660
 23 Rh    0.31383   -0.03324    0.02688
 24 Rh   -0.17455    0.21260   -0.07518
 25 Rh    0.11937    0.20950    0.21886
 26 Rh    0.02812    0.01507   -0.02774
 27 C    -0.76781   -0.75628   -0.53288
 28 O     0.24596    0.24239   -1.22950

System changes: positions 

Initializing position-dependent things.

Density initialized from wave functions
                                           
                                           
                                           
                                           
                                           
                                           
                    O                      
                    C                      
                Rh     Rh     Rh           
                                           
            Rh   RRh    RRh    Rh          
       Rh    RRh   RRh    Rh               
                                           
        Rh     Rh   RRh    Rh    Rh        
                                           
                Rh    Rh     Rh            
           Rh    Rh     Rh                 
                                           
                                           
                                           
                                           

Positions:
   0 Rh     1.341702    0.775080    6.015247    ( 0.0000,  0.0000,  0.0000)
   1 Rh     4.030264    0.775965    6.018911    ( 0.0000,  0.0000,  0.0000)
   2 Rh     6.719575    0.774987    6.016470    ( 0.0000,  0.0000,  0.0000)
   3 Rh     2.687098    3.102444    6.018727    ( 0.0000,  0.0000,  0.0000)
   4 Rh     5.373632    3.102523    6.018757    ( 0.0000,  0.0000,  0.0000)
   5 Rh     8.061169    3.101608    6.017814    ( 0.0000,  0.0000,  0.0000)
   6 Rh     4.030731    5.431413    6.016819    ( 0.0000,  0.0000,  0.0000)
   7 Rh     6.716700    5.430060    6.018168    ( 0.0000,  0.0000,  0.0000)
   8 Rh     9.404955    5.429846    6.018577    ( 0.0000,  0.0000,  0.0000)
   9 Rh    -0.000418    1.551680    8.195966    ( 0.0000,  0.0000,  0.0000)
  10 Rh     2.691030    1.552979    8.199227    ( 0.0000,  0.0000,  0.0000)
  11 Rh     5.373124    1.551180    8.190673    ( 0.0000,  0.0000,  0.0000)
  12 Rh     1.343584    3.878430    8.195102    ( 0.0000,  0.0000,  0.0000)
  13 Rh     4.030421    3.878237    8.189286    ( 0.0000,  0.0000,  0.0000)
  14 Rh     6.717707    3.878611    8.193798    ( 0.0000,  0.0000,  0.0000)
  15 Rh     2.686528    6.205083    8.195602    ( 0.0000,  0.0000,  0.0000)
  16 Rh     5.374249    6.204744    8.195806    ( 0.0000,  0.0000,  0.0000)
  17 Rh     8.061049    6.205648    8.195006    ( 0.0000,  0.0000,  0.0000)
  18 Rh     0.000100    0.000471   10.371400    ( 0.0000,  0.0000,  0.0000)
  19 Rh     2.685194   -0.003095   10.369791    ( 0.0000,  0.0000,  0.0000)
  20 Rh     5.375623   -0.004154   10.369574    ( 0.0000,  0.0000,  0.0000)
  21 Rh     1.339566    2.326627   10.369664    ( 0.0000,  0.0000,  0.0000)
  22 Rh     4.036761    2.335144   10.415209    ( 0.0000,  0.0000,  0.0000)
  23 Rh     6.723953    2.326330   10.371761    ( 0.0000,  0.0000,  0.0000)
  24 Rh     2.683444    4.658331   10.369820    ( 0.0000,  0.0000,  0.0000)
  25 Rh     5.376508    4.658438   10.375475    ( 0.0000,  0.0000,  0.0000)
  26 Rh     8.061577    4.654324   10.370917    ( 0.0000,  0.0000,  0.0000)
  27 C      4.514870    2.811616   12.317257    ( 0.0000,  0.0000,  0.0000)
  28 O      4.535559    2.831991   13.490755    ( 0.0000,  0.0000,  0.0000)

Unit cell:
           periodic     x           y           z      points  spacing
  1. axis:    yes    8.061017    0.000000    0.000000    40     0.1745
  2. axis:    yes    4.030509    6.981046    0.000000    40     0.1745
  3. axis:    no     0.000000    0.000000   16.387862    81     0.2023

  Lengths:   8.061017   8.061017  16.387862
  Angles:   90.000000  90.000000  60.000000

Effective grid spacing dv^(1/3) = 0.1923

                     log10-error:    total        iterations:
           time      wfs    density  energy       fermi  poisson
iter:   1  00:41:10  -2.76   +inf  -199.079766    4             
iter:   2  00:41:15  -2.70  -2.30  -200.204998    3             
iter:   3  00:41:19  -3.16  -1.98  -198.826972    3             
iter:   4  00:41:24  -4.56  -2.90  -198.815706    2             
iter:   5  00:41:28  -4.24  -3.14  -198.809390    3             
iter:   6  00:41:33  -5.02  -3.39  -198.808214    3             
iter:   7  00:41:37  -5.71  -3.52  -198.808026    2             
iter:   8  00:41:42  -5.68  -3.59  -198.807787    3             
iter:   9  00:41:47  -5.70  -3.71  -198.808500    2             
iter:  10  00:41:51  -5.80  -3.47  -198.807637    3             
iter:  11  00:41:56  -6.38  -3.91  -198.807615    2             
iter:  12  00:42:00  -6.72  -3.97  -198.807601    2             
iter:  13  00:42:05  -6.67  -4.07  -198.807567    2             
iter:  14  00:42:09  -6.95  -4.25  -198.807562    2             
iter:  15  00:42:14  -7.55  -4.45  -198.807578    2             

Converged after 15 iterations.

Dipole moment: (0.277735, 0.126289, -0.124710) |e|*Ang

Energy contributions relative to reference atoms: (reference = -3516703.949422)

Kinetic:       -111.253845
Potential:      +38.491658
External:        +0.000000
XC:            -123.077286
Entropy (-ST):   -1.587563
Local:           -2.174324
--------------------------
Free energy:   -199.601359
Extrapolated:  -198.807578

Fermi level: 1.94033

Showing only first 2 kpts
 Kpt  Band  Eigenvalues  Occupancy
  0   205      1.81839    0.19299
  0   206      1.87284    0.16565
  0   207      1.95095    0.11836
  0   208      2.06171    0.05725

  1   205      1.89013    0.15573
  1   206      1.93219    0.13008
  1   207      1.94661    0.12107
  1   208      1.97210    0.10531


No gap

Forces in eV/Ang:
  0 Rh   -0.08224   -0.02963   -0.10746
  1 Rh   -0.01822    0.00870    0.03395
  2 Rh    0.09915   -0.03442   -0.07483
  3 Rh   -0.00390   -0.01875    0.02715
  4 Rh   -0.01225   -0.00830    0.01078
  5 Rh    0.00858   -0.04191   -0.00911
  6 Rh    0.01214    0.08917   -0.06297
  7 Rh   -0.02990    0.01694    0.00272
  8 Rh    0.01134    0.00363    0.02109
  9 Rh   -0.00121    0.01045    0.04920
 10 Rh    0.20674    0.09602    0.22816
 11 Rh   -0.07907    0.02828   -0.10482
 12 Rh    0.00860   -0.00913    0.01487
 13 Rh    0.00457   -0.05427   -0.15982
 14 Rh   -0.00587    0.00484   -0.01591
 15 Rh   -0.01086   -0.00537    0.03470
 16 Rh    0.01257   -0.01233    0.04488
 17 Rh   -0.00438    0.01848    0.01329
 18 Rh    0.00533    0.01623    0.01798
 19 Rh   -0.05364   -0.09855   -0.04863
 20 Rh    0.05429   -0.13977   -0.06786
 21 Rh   -0.12993   -0.01505   -0.05660
 22 Rh    0.26413    0.32982    1.82543
 23 Rh    0.25901   -0.03013    0.00892
 24 Rh   -0.13256    0.17009   -0.06218
 25 Rh    0.10970    0.19848    0.15255
 26 Rh    0.01805    0.01264   -0.00923
 27 C    -0.75080   -0.74624   -0.26761
 28 O     0.24910    0.24688   -1.29511

System changes: positions 

Initializing position-dependent things.

Density initialized from wave functions
                                           
                                           
                                           
                                           
                                           
                                           
                    O                      
                    C                      
                Rh     Rh     Rh           
                                           
            Rh   RRh    RRh    Rh          
       Rh    RRh   RRh    Rh               
                                           
        Rh     Rh   RRh    Rh    Rh        
                                           
                Rh    Rh     Rh            
           Rh    Rh     Rh                 
                                           
                                           
                                           
                                           

Positions:
   0 Rh     1.339971    0.774462    6.012884    ( 0.0000,  0.0000,  0.0000)
   1 Rh     4.029899    0.776160    6.019594    ( 0.0000,  0.0000,  0.0000)
   2 Rh     6.721649    0.774271    6.014854    ( 0.0000,  0.0000,  0.0000)
   3 Rh     2.687038    3.102071    6.019262    ( 0.0000,  0.0000,  0.0000)
   4 Rh     5.373361    3.102351    6.018995    ( 0.0000,  0.0000,  0.0000)
   5 Rh     8.061345    3.100706    6.017576    ( 0.0000,  0.0000,  0.0000)
   6 Rh     4.030981    5.433260    6.015464    ( 0.0000,  0.0000,  0.0000)
   7 Rh     6.716051    5.430416    6.018190    ( 0.0000,  0.0000,  0.0000)
   8 Rh     9.405217    5.429930    6.018988    ( 0.0000,  0.0000,  0.0000)
   9 Rh    -0.000493    1.551919    8.197042    ( 0.0000,  0.0000,  0.0000)
  10 Rh     2.695333    1.554949    8.204013    ( 0.0000,  0.0000,  0.0000)
  11 Rh     5.371559    1.551679    8.188272    ( 0.0000,  0.0000,  0.0000)
  12 Rh     1.343746    3.878274    8.195448    ( 0.0000,  0.0000,  0.0000)
  13 Rh     4.030494    3.877224    8.185701    ( 0.0000,  0.0000,  0.0000)
  14 Rh     6.717627    3.878734    8.193418    ( 0.0000,  0.0000,  0.0000)
  15 Rh     2.686263    6.204946    8.196370    ( 0.0000,  0.0000,  0.0000)
  16 Rh     5.374515    6.204435    8.196786    ( 0.0000,  0.0000,  0.0000)
  17 Rh     8.060972    6.206016    8.195311    ( 0.0000,  0.0000,  0.0000)
  18 Rh     0.000210    0.000826   10.371761    ( 0.0000,  0.0000,  0.0000)
  19 Rh     2.683982   -0.005294   10.368717    ( 0.0000,  0.0000,  0.0000)
  20 Rh     5.376822   -0.007240   10.368118    ( 0.0000,  0.0000,  0.0000)
  21 Rh     1.336688    2.326303   10.368428    ( 0.0000,  0.0000,  0.0000)
  22 Rh     4.042394    2.342219   10.454174    ( 0.0000,  0.0000,  0.0000)
  23 Rh     6.729527    2.325688   10.371966    ( 0.0000,  0.0000,  0.0000)
  24 Rh     2.680562    4.661994   10.368491    ( 0.0000,  0.0000,  0.0000)
  25 Rh     5.378846    4.662659   10.378761    ( 0.0000,  0.0000,  0.0000)
  26 Rh     8.061977    4.654591   10.370706    ( 0.0000,  0.0000,  0.0000)
  27 C      4.499090    2.795950   12.300966    ( 0.0000,  0.0000,  0.0000)
  28 O      4.540782    2.837165   13.474103    ( 0.0000,  0.0000,  0.0000)

Unit cell:
           periodic     x           y           z      points  spacing
  1. axis:    yes    8.061017    0.000000    0.000000    40     0.1745
  2. axis:    yes    4.030509    6.981046    0.000000    40     0.1745
  3. axis:    no     0.000000    0.000000   16.387862    81     0.2023

  Lengths:   8.061017   8.061017  16.387862
  Angles:   90.000000  90.000000  60.000000

Effective grid spacing dv^(1/3) = 0.1923

                     log10-error:    total        iterations:
           time      wfs    density  energy       fermi  poisson
iter:   1  00:42:21  -2.63   +inf  -199.077935    4             
iter:   2  00:42:26  -3.27  -2.51  -199.080410    3             
iter:   3  00:42:30  -3.70  -2.46  -199.017294    2             
iter:   4  00:42:35  -4.40  -2.56  -198.944781    3             
iter:   5  00:42:40  -4.13  -3.12  -198.935395    3             
iter:   6  00:42:44  -4.86  -3.35  -198.934347    3             
iter:   7  00:42:49  -5.58  -3.42  -198.933959    2             
iter:   8  00:42:54  -5.46  -3.51  -198.933577    3             
iter:   9  00:42:58  -5.47  -3.69  -198.933450    3             
iter:  10  00:43:03  -6.10  -3.89  -198.933448    2             
iter:  11  00:43:08  -6.21  -3.91  -198.933692    2             
iter:  12  00:43:12  -6.50  -3.72  -198.933446    2             
iter:  13  00:43:17  -6.70  -4.03  -198.933396    2             
iter:  14  00:43:22  -7.21  -4.22  -198.933391    2             
iter:  15  00:43:26  -6.97  -4.34  -198.933388    2             
iter:  16  00:43:31  -7.20  -4.57  -198.933398    2             
iter:  17  00:43:36  -7.65  -4.65  -198.933403    1             

Converged after 17 iterations.

Dipole moment: (0.706638, 0.328098, -0.149505) |e|*Ang

Energy contributions relative to reference atoms: (reference = -3516703.949422)

Kinetic:       -110.639436
Potential:      +37.918104
External:        +0.000000
XC:            -123.251154
Entropy (-ST):   -1.587233
Local:           -2.167301
--------------------------
Free energy:   -199.727020
Extrapolated:  -198.933403

Fermi level: 1.92775

Showing only first 2 kpts
 Kpt  Band  Eigenvalues  Occupancy
  0   205      1.80556    0.19310
  0   206      1.86026    0.16565
  0   207      1.94185    0.11620
  0   208      2.05094    0.05646

  1   205      1.88230    0.15293
  1   206      1.92081    0.12934
  1   207      1.93722    0.11909
  1   208      1.95974    0.10517


No gap

Forces in eV/Ang:
  0 Rh   -0.07723   -0.03147   -0.08430
  1 Rh   -0.01939    0.00716    0.02726
  2 Rh    0.09450   -0.03355   -0.07248
  3 Rh   -0.00551   -0.02210    0.02245
  4 Rh   -0.00970   -0.00873   -0.00592
  5 Rh    0.00803   -0.03326   -0.01190
  6 Rh    0.01316    0.09020   -0.06465
  7 Rh   -0.02257    0.01581   -0.00451
  8 Rh    0.00542    0.00207    0.01238
  9 Rh    0.01332    0.00541    0.02960
 10 Rh    0.18745    0.09481    0.18800
 11 Rh   -0.08396    0.04236   -0.06521
 12 Rh    0.00724   -0.01294   -0.00092
 13 Rh    0.00751   -0.06763   -0.10742
 14 Rh   -0.00980    0.00100   -0.00915
 15 Rh   -0.00100    0.00285    0.01615
 16 Rh    0.01310    0.00404    0.02793
 17 Rh   -0.00603    0.01452   -0.00030
 18 Rh    0.00824    0.01445    0.00060
 19 Rh   -0.02582   -0.06222   -0.02990
 20 Rh    0.03512   -0.08622   -0.05601
 21 Rh   -0.08160   -0.00549   -0.03885
 22 Rh    0.20572    0.24839    1.40849
 23 Rh    0.20392   -0.02443   -0.01902
 24 Rh   -0.09238    0.12752   -0.05748
 25 Rh    0.09905    0.18362    0.07030
 26 Rh    0.01359    0.01349   -0.02491
 27 C    -0.71379   -0.71366    0.03852
 28 O     0.22603    0.22542   -1.18729

System changes: positions 

Initializing position-dependent things.

Density initialized from wave functions
                                           
                                           
                                           
                                           
                                           
                                           
                    O                      
                    C                      
                Rh     Rh     Rh           
                                           
            Rh   RRh    RRh    Rh          
       Rh    RRh   RRh    Rh               
                                           
        Rh     Rh   RRh    Rh    Rh        
                                           
                Rh    Rh     Rh            
           Rh    Rh     Rh                 
                                           
                                           
                                           
                                           

Positions:
   0 Rh     1.338004    0.773698    6.010473    ( 0.0000,  0.0000,  0.0000)
   1 Rh     4.029449    0.776365    6.020283    ( 0.0000,  0.0000,  0.0000)
   2 Rh     6.724026    0.773437    6.012973    ( 0.0000,  0.0000,  0.0000)
   3 Rh     2.686940    3.101572    6.019811    ( 0.0000,  0.0000,  0.0000)
   4 Rh     5.373082    3.102140    6.018986    ( 0.0000,  0.0000,  0.0000)
   5 Rh     8.061544    3.099784    6.017239    ( 0.0000,  0.0000,  0.0000)
   6 Rh     4.031295    5.435467    6.013823    ( 0.0000,  0.0000,  0.0000)
   7 Rh     6.715407    5.430819    6.018086    ( 0.0000,  0.0000,  0.0000)
   8 Rh     9.405426    5.430004    6.019318    ( 0.0000,  0.0000,  0.0000)
   9 Rh    -0.000332    1.552118    8.197979    ( 0.0000,  0.0000,  0.0000)
  10 Rh     2.700093    1.557259    8.208983    ( 0.0000,  0.0000,  0.0000)
  11 Rh     5.369630    1.552508    8.186094    ( 0.0000,  0.0000,  0.0000)
  12 Rh     1.343914    3.878026    8.195585    ( 0.0000,  0.0000,  0.0000)
  13 Rh     4.030629    3.875803    8.182340    ( 0.0000,  0.0000,  0.0000)
  14 Rh     6.717468    3.878814    8.193079    ( 0.0000,  0.0000,  0.0000)
  15 Rh     2.686118    6.204924    8.196959    ( 0.0000,  0.0000,  0.0000)
  16 Rh     5.374840    6.204349    8.197656    ( 0.0000,  0.0000,  0.0000)
  17 Rh     8.060855    6.206380    8.195438    ( 0.0000,  0.0000,  0.0000)
  18 Rh     0.000391    0.001219   10.371879    ( 0.0000,  0.0000,  0.0000)
  19 Rh     2.683022   -0.007279   10.367764    ( 0.0000,  0.0000,  0.0000)
  20 Rh     5.377915   -0.009978   10.366593    ( 0.0000,  0.0000,  0.0000)
  21 Rh     1.334104    2.326085   10.367266    ( 0.0000,  0.0000,  0.0000)
  22 Rh     4.048061    2.349197   10.493150    ( 0.0000,  0.0000,  0.0000)
  23 Rh     6.735187    2.325026   10.371721    ( 0.0000,  0.0000,  0.0000)
  24 Rh     2.677838    4.665602   10.366994    ( 0.0000,  0.0000,  0.0000)
  25 Rh     5.381435    4.667409   10.381229    ( 0.0000,  0.0000,  0.0000)
  26 Rh     8.062376    4.654924   10.370176    ( 0.0000,  0.0000,  0.0000)
  27 C      4.481025    2.777943   12.286294    ( 0.0000,  0.0000,  0.0000)
  28 O      4.546570    2.842921   13.456946    ( 0.0000,  0.0000,  0.0000)

Unit cell:
           periodic     x           y           z      points  spacing
  1. axis:    yes    8.061017    0.000000    0.000000    40     0.1745
  2. axis:    yes    4.030509    6.981046    0.000000    40     0.1745
  3. axis:    no     0.000000    0.000000   16.387862    81     0.2023

  Lengths:   8.061017   8.061017  16.387862
  Angles:   90.000000  90.000000  60.000000

Effective grid spacing dv^(1/3) = 0.1923

                     log10-error:    total        iterations:
           time      wfs    density  energy       fermi  poisson
iter:   1  00:43:43  -2.57   +inf  -199.484308    4             
iter:   2  00:43:47  -2.46  -2.19  -201.467503    4             
iter:   3  00:43:52  -2.93  -1.86  -199.059574    3             
iter:   4  00:43:57  -4.27  -2.84  -199.043552    2             
iter:   5  00:44:01  -3.94  -3.05  -199.031949    3             
iter:   6  00:44:06  -4.78  -3.28  -199.029715    3             
iter:   7  00:44:11  -5.52  -3.41  -199.029450    2             
iter:   8  00:44:15  -5.47  -3.47  -199.029549    3             
iter:   9  00:44:20  -5.58  -3.48  -199.029670    2             
iter:  10  00:44:24  -5.62  -3.43  -199.028827    3             
iter:  11  00:44:29  -6.03  -3.85  -199.028818    2             
iter:  12  00:44:34  -6.40  -3.89  -199.028801    2             
iter:  13  00:44:38  -6.41  -3.97  -199.028750    3             
iter:  14  00:44:43  -6.68  -4.13  -199.028730    2             
iter:  15  00:44:48  -7.34  -4.34  -199.028748    2             
iter:  16  00:44:52  -7.05  -4.19  -199.028727    2             
iter:  17  00:44:57  -7.33  -4.44  -199.028733    2             
iter:  18  00:45:02  -7.83  -4.69  -199.028734    2             

Converged after 18 iterations.

Dipole moment: (1.107286, 0.508550, -0.177574) |e|*Ang

Energy contributions relative to reference atoms: (reference = -3516703.949422)

Kinetic:       -109.757537
Potential:      +37.197696
External:        +0.000000
XC:            -123.506183
Entropy (-ST):   -1.586293
Local:           -2.169563
--------------------------
Free energy:   -199.821880
Extrapolated:  -199.028734

Fermi level: 1.91441

Showing only first 2 kpts
 Kpt  Band  Eigenvalues  Occupancy
  0   205      1.79230    0.19306
  0   206      1.84701    0.16560
  0   207      1.93188    0.11411
  0   208      2.03842    0.05610

  1   205      1.87347    0.15023
  1   206      1.90898    0.12839
  1   207      1.92737    0.11691
  1   208      1.94634    0.10521


No gap

Forces in eV/Ang:
  0 Rh   -0.06253   -0.02937   -0.04450
  1 Rh   -0.02105    0.00373    0.02611
  2 Rh    0.08161   -0.02998   -0.05748
  3 Rh   -0.00870   -0.02493    0.02344
  4 Rh   -0.00529   -0.00863   -0.01626
  5 Rh    0.00722   -0.02141   -0.00429
  6 Rh    0.01300    0.08454   -0.05512
  7 Rh   -0.01286    0.01394   -0.00212
  8 Rh   -0.00158    0.00011    0.01145
  9 Rh    0.02675   -0.00145    0.00318
 10 Rh    0.16290    0.09034    0.15032
 11 Rh   -0.08656    0.05645   -0.01283
 12 Rh    0.01127   -0.01990   -0.01217
 13 Rh    0.01118   -0.08085   -0.03971
 14 Rh   -0.01853   -0.00544    0.00177
 15 Rh    0.01143    0.01214   -0.00433
 16 Rh    0.01175    0.01987    0.00832
 17 Rh   -0.00844    0.01731   -0.00964
 18 Rh    0.00934    0.00989    0.00278
 19 Rh    0.00844   -0.01174   -0.00400
 20 Rh    0.00983   -0.02174   -0.03752
 21 Rh   -0.01809    0.00344   -0.01355
 22 Rh    0.09899    0.11783    0.77298
 23 Rh    0.13606   -0.01636   -0.04183
 24 Rh   -0.04620    0.07559   -0.04726
 25 Rh    0.08336    0.15784   -0.01073
 26 Rh    0.00643    0.01184   -0.01886
 27 C    -0.60339   -0.60767    0.45068
 28 O     0.21075    0.21139   -1.01891

System changes: positions 

Initializing position-dependent things.

Density initialized from wave functions
                                           
                                           
                                           
                                           
                                           
                                           
                    O                      
                    C                      
                Rh     Rh     Rh           
                  Rh                       
            Rh   Rh     RRh    Rh          
       Rh    RRh   RRh    Rh               
                                           
        Rh     Rh   RRh    Rh    Rh        
                                           
                Rh    Rh     Rh            
           Rh    Rh     Rh                 
                                           
                                           
                                           
                                           

Positions:
   0 Rh     1.335621    0.772686    6.008052    ( 0.0000,  0.0000,  0.0000)
   1 Rh     4.028789    0.776572    6.021195    ( 0.0000,  0.0000,  0.0000)
   2 Rh     6.727018    0.772366    6.010705    ( 0.0000,  0.0000,  0.0000)
   3 Rh     2.686734    3.100816    6.020579    ( 0.0000,  0.0000,  0.0000)
   4 Rh     5.372797    3.101849    6.018715    ( 0.0000,  0.0000,  0.0000)
   5 Rh     8.061800    3.098785    6.016932    ( 0.0000,  0.0000,  0.0000)
   6 Rh     4.031727    5.438390    6.011759    ( 0.0000,  0.0000,  0.0000)
   7 Rh     6.714742    5.431332    6.017978    ( 0.0000,  0.0000,  0.0000)
   8 Rh     9.405552    5.430061    6.019735    ( 0.0000,  0.0000,  0.0000)
   9 Rh     0.000207    1.552234    8.198658    ( 0.0000,  0.0000,  0.0000)
  10 Rh     2.706089    1.560343    8.214946    ( 0.0000,  0.0000,  0.0000)
  11 Rh     5.366909    1.553977    8.184287    ( 0.0000,  0.0000,  0.0000)
  12 Rh     1.344231    3.877527    8.195502    ( 0.0000,  0.0000,  0.0000)
  13 Rh     4.030900    3.873540    8.179257    ( 0.0000,  0.0000,  0.0000)
  14 Rh     6.717054    3.878778    8.192859    ( 0.0000,  0.0000,  0.0000)
  15 Rh     2.686206    6.205111    8.197290    ( 0.0000,  0.0000,  0.0000)
  16 Rh     5.375261    6.204604    8.198399    ( 0.0000,  0.0000,  0.0000)
  17 Rh     8.060638    6.206936    8.195386    ( 0.0000,  0.0000,  0.0000)
  18 Rh     0.000670    0.001659   10.372060    ( 0.0000,  0.0000,  0.0000)
  19 Rh     2.682494   -0.008854   10.367048    ( 0.0000,  0.0000,  0.0000)
  20 Rh     5.378838   -0.012257   10.364913    ( 0.0000,  0.0000,  0.0000)
  21 Rh     1.332009    2.325999   10.366247    ( 0.0000,  0.0000,  0.0000)
  22 Rh     4.053422    2.355811   10.532234    ( 0.0000,  0.0000,  0.0000)
  23 Rh     6.741423    2.324299   10.370831    ( 0.0000,  0.0000,  0.0000)
  24 Rh     2.675156    4.669373   10.365158    ( 0.0000,  0.0000,  0.0000)
  25 Rh     5.384651    4.673382   10.382710    ( 0.0000,  0.0000,  0.0000)
  26 Rh     8.062763    4.655349   10.369550    ( 0.0000,  0.0000,  0.0000)
  27 C      4.458579    2.755476   12.274742    ( 0.0000,  0.0000,  0.0000)
  28 O      4.554193    2.850530   13.438137    ( 0.0000,  0.0000,  0.0000)

Unit cell:
           periodic     x           y           z      points  spacing
  1. axis:    yes    8.061017    0.000000    0.000000    40     0.1745
  2. axis:    yes    4.030509    6.981046    0.000000    40     0.1745
  3. axis:    no     0.000000    0.000000   16.387862    81     0.2023

  Lengths:   8.061017   8.061017  16.387862
  Angles:   90.000000  90.000000  60.000000

Effective grid spacing dv^(1/3) = 0.1923

                     log10-error:    total        iterations:
           time      wfs    density  energy       fermi  poisson
iter:   1  00:45:09  -2.50   +inf  -199.477122    4             
iter:   2  00:45:13  -2.54  -2.22  -200.978296    4             
iter:   3  00:45:18  -3.03  -1.92  -199.120860    3             
iter:   4  00:45:23  -4.34  -2.82  -199.102534    3             
iter:   5  00:45:27  -3.83  -3.04  -199.088018    3             
iter:   6  00:45:32  -4.81  -3.27  -199.086095    3             
iter:   7  00:45:37  -5.51  -3.37  -199.085723    2             
iter:   8  00:45:41  -5.31  -3.42  -199.085461    3             
iter:   9  00:45:46  -5.52  -3.53  -199.085922    2             
iter:  10  00:45:51  -5.65  -3.40  -199.084945    3             
iter:  11  00:45:55  -6.07  -3.80  -199.084910    2             
iter:  12  00:46:00  -6.28  -3.86  -199.084883    3             
iter:  13  00:46:05  -6.32  -3.95  -199.084826    3             
iter:  14  00:46:09  -6.72  -4.12  -199.084794    2             
iter:  15  00:46:14  -7.39  -4.34  -199.084822    2             
iter:  16  00:46:19  -6.96  -4.17  -199.084798    2             
iter:  17  00:46:23  -7.33  -4.37  -199.084799    2             
iter:  18  00:46:28  -7.81  -4.71  -199.084801    2             

Converged after 18 iterations.

Dipole moment: (1.477089, 0.656828, -0.203439) |e|*Ang

Energy contributions relative to reference atoms: (reference = -3516703.949422)

Kinetic:       -107.608295
Potential:      +35.438392
External:        +0.000000
XC:            -123.946926
Entropy (-ST):   -1.584580
Local:           -2.175682
--------------------------
Free energy:   -199.877091
Extrapolated:  -199.084801

Fermi level: 1.90185

Showing only first 2 kpts
 Kpt  Band  Eigenvalues  Occupancy
  0   205      1.78020    0.19286
  0   206      1.83474    0.16544
  0   207      1.92245    0.11217
  0   208      2.02549    0.05627

  1   205      1.86483    0.14788
  1   206      1.89891    0.12684
  1   207      1.91880    0.11443
  1   208      1.93357    0.10534


No gap

Forces in eV/Ang:
  0 Rh   -0.03873   -0.02282   -0.00296
  1 Rh   -0.01999    0.00100    0.02181
  2 Rh    0.05845   -0.02205   -0.03837
  3 Rh   -0.00957   -0.02482    0.02117
  4 Rh   -0.00093   -0.00780   -0.02505
  5 Rh    0.00509   -0.00750    0.00259
  6 Rh    0.01152    0.06779   -0.04124
  7 Rh   -0.00242    0.01018    0.00006
  8 Rh   -0.00716   -0.00151    0.01009
  9 Rh    0.03649   -0.00772   -0.02660
 10 Rh    0.11151    0.07045    0.08787
 11 Rh   -0.06501    0.05740    0.02396
 12 Rh    0.01136   -0.02004   -0.02281
 13 Rh    0.01410   -0.06931    0.01501
 14 Rh   -0.02049   -0.00888    0.00721
 15 Rh    0.02176    0.02039   -0.02674
 16 Rh    0.00955    0.03350   -0.01406
 17 Rh   -0.00771    0.01384   -0.01974
 18 Rh    0.00912    0.00591    0.00057
 19 Rh    0.03889    0.03418    0.02198
 20 Rh   -0.01086    0.03921   -0.01726
 21 Rh    0.03986    0.01465    0.01291
 22 Rh   -0.05953   -0.06344   -0.11443
 23 Rh    0.05837   -0.00489   -0.05934
 24 Rh    0.00218    0.02149   -0.03376
 25 Rh    0.05945    0.11460   -0.08727
 26 Rh    0.00128    0.00941   -0.01520
 27 C    -0.43549   -0.44235    0.83976
 28 O     0.19887    0.19882   -0.63703

System changes: positions 

Initializing position-dependent things.

Density initialized from wave functions
                                           
                                           
                                           
                                           
                                           
                                           
                    O                      
                    C                      
                Rh     Rh     Rh           
                  Rh                       
            Rh   Rh     RRh    Rh          
       Rh    RRh   RRh    Rh               
                                           
        Rh     Rh   RRh    Rh    Rh        
                                           
                Rh    Rh     Rh            
           Rh    Rh     Rh                 
                                           
                                           
                                           
                                           

Positions:
   0 Rh     1.334017    0.771908    6.006908    ( 0.0000,  0.0000,  0.0000)
   1 Rh     4.028206    0.776687    6.021910    ( 0.0000,  0.0000,  0.0000)
   2 Rh     6.729190    0.771575    6.009105    ( 0.0000,  0.0000,  0.0000)
   3 Rh     2.686515    3.100118    6.021217    ( 0.0000,  0.0000,  0.0000)
   4 Rh     5.372650    3.101603    6.018216    ( 0.0000,  0.0000,  0.0000)
   5 Rh     8.061984    3.098229    6.016816    ( 0.0000,  0.0000,  0.0000)
   6 Rh     4.032089    5.440672    6.010208    ( 0.0000,  0.0000,  0.0000)
   7 Rh     6.714407    5.431709    6.017916    ( 0.0000,  0.0000,  0.0000)
   8 Rh     9.405512    5.430068    6.020058    ( 0.0000,  0.0000,  0.0000)
   9 Rh     0.000975    1.552174    8.198526    ( 0.0000,  0.0000,  0.0000)
  10 Rh     2.710322    1.562705    8.218825    ( 0.0000,  0.0000,  0.0000)
  11 Rh     5.364868    1.555408    8.183690    ( 0.0000,  0.0000,  0.0000)
  12 Rh     1.344531    3.877038    8.195133    ( 0.0000,  0.0000,  0.0000)
  13 Rh     4.031223    3.871649    8.177959    ( 0.0000,  0.0000,  0.0000)
  14 Rh     6.716598    3.878643    8.192828    ( 0.0000,  0.0000,  0.0000)
  15 Rh     2.686564    6.205501    8.197017    ( 0.0000,  0.0000,  0.0000)
  16 Rh     5.375592    6.205208    8.198503    ( 0.0000,  0.0000,  0.0000)
  17 Rh     8.060443    6.207370    8.195068    ( 0.0000,  0.0000,  0.0000)
  18 Rh     0.000929    0.001955   10.372142    ( 0.0000,  0.0000,  0.0000)
  19 Rh     2.682827   -0.009071   10.367065    ( 0.0000,  0.0000,  0.0000)
  20 Rh     5.379111   -0.012712   10.363902    ( 0.0000,  0.0000,  0.0000)
  21 Rh     1.331643    2.326202   10.365996    ( 0.0000,  0.0000,  0.0000)
  22 Rh     4.054526    2.357442   10.546244    ( 0.0000,  0.0000,  0.0000)
  23 Rh     6.745091    2.323919   10.369525    ( 0.0000,  0.0000,  0.0000)
  24 Rh     2.673982    4.671386   10.363822    ( 0.0000,  0.0000,  0.0000)
  25 Rh     5.386983    4.677760   10.382007    ( 0.0000,  0.0000,  0.0000)
  26 Rh     8.062970    4.655679   10.369041    ( 0.0000,  0.0000,  0.0000)
  27 C      4.442235    2.739033   12.275379    ( 0.0000,  0.0000,  0.0000)
  28 O      4.560706    2.857026   13.428805    ( 0.0000,  0.0000,  0.0000)

Unit cell:
           periodic     x           y           z      points  spacing
  1. axis:    yes    8.061017    0.000000    0.000000    40     0.1745
  2. axis:    yes    4.030509    6.981046    0.000000    40     0.1745
  3. axis:    no     0.000000    0.000000   16.387862    81     0.2023

  Lengths:   8.061017   8.061017  16.387862
  Angles:   90.000000  90.000000  60.000000

Effective grid spacing dv^(1/3) = 0.1923

                     log10-error:    total        iterations:
           time      wfs    density  energy       fermi  poisson
iter:   1  00:46:35  -3.01   +inf  -199.182392    3             
iter:   2  00:46:40  -3.27  -2.58  -199.468108    3             
iter:   3  00:46:44  -3.76  -2.27  -199.112971    3             
iter:   4  00:46:49  -5.00  -3.16  -199.108573    3             
iter:   5  00:46:54  -4.45  -3.38  -199.104503    3             
iter:   6  00:46:58  -5.62  -3.55  -199.104251    2             
iter:   7  00:47:03  -6.08  -3.61  -199.104029    2             
iter:   8  00:47:08  -5.50  -3.70  -199.103902    3             
iter:   9  00:47:12  -6.21  -3.93  -199.103988    2             
iter:  10  00:47:17  -6.45  -3.73  -199.103782    2             
iter:  11  00:47:22  -6.72  -4.04  -199.103760    2             
iter:  12  00:47:26  -6.77  -4.19  -199.103733    2             
iter:  13  00:47:31  -7.05  -4.37  -199.103729    2             
iter:  14  00:47:36  -7.72  -4.51  -199.103722    2             

Converged after 14 iterations.

Dipole moment: (1.609026, 0.682149, -0.202602) |e|*Ang

Energy contributions relative to reference atoms: (reference = -3516703.949422)

Kinetic:       -106.309456
Potential:      +34.381255
External:        +0.000000
XC:            -124.217730
Entropy (-ST):   -1.583149
Local:           -2.166217
--------------------------
Free energy:   -199.895296
Extrapolated:  -199.103722

Fermi level: 1.90218

Showing only first 2 kpts
 Kpt  Band  Eigenvalues  Occupancy
  0   205      1.78082    0.19273
  0   206      1.83520    0.16537
  0   207      1.92357    0.11169
  0   208      2.02542    0.05644

  1   205      1.86694    0.14680
  1   206      1.90094    0.12578
  1   207      1.92088    0.11335
  1   208      1.93357    0.10554


No gap

Forces in eV/Ang:
  0 Rh   -0.01230   -0.01216    0.02820
  1 Rh   -0.01636   -0.00073    0.02284
  2 Rh    0.03011   -0.01168   -0.01536
  3 Rh   -0.00859   -0.02078    0.02292
  4 Rh    0.00212   -0.00599   -0.02122
  5 Rh    0.00257    0.00335    0.01295
  6 Rh    0.00809    0.04111   -0.02039
  7 Rh    0.00458    0.00541    0.00853
  8 Rh   -0.00826   -0.00204    0.01572
  9 Rh    0.03751   -0.00879   -0.04326
 10 Rh    0.05727    0.04376    0.04086
 11 Rh   -0.02758    0.04324    0.03530
 12 Rh    0.00951   -0.01328   -0.02730
 13 Rh    0.01540   -0.03476    0.03785
 14 Rh   -0.01629   -0.00856    0.00390
 15 Rh    0.02275    0.02199   -0.03721
 16 Rh    0.00840    0.03833   -0.02915
 17 Rh   -0.00337    0.00816   -0.02535
 18 Rh    0.00609    0.00371    0.00081
 19 Rh    0.04847    0.05405    0.03061
 20 Rh   -0.01345    0.06527   -0.00928
 21 Rh    0.06170    0.02016    0.02262
 22 Rh   -0.10531   -0.11946   -0.49006
 23 Rh   -0.00003    0.00574   -0.06165
 24 Rh    0.03239   -0.00683   -0.02666
 25 Rh    0.03005    0.05889   -0.11546
 26 Rh    0.00132    0.00659   -0.00986
 27 C    -0.35804   -0.36615    0.61931
 28 O     0.21420    0.21307   -0.05560

System changes: positions 

Initializing position-dependent things.

Density initialized from wave functions
                                           
                                           
                                           
                                           
                                           
                                           
                    O                      
                    C                      
                Rh     Rh     Rh           
                  Rh                       
            Rh   Rh     RRh    Rh          
       Rh    RRh   RRh    Rh               
                                           
        Rh     Rh   RRh    Rh    Rh        
                                           
                Rh    Rh     Rh            
           Rh    Rh     Rh                 
                                           
                                           
                                           
                                           

Positions:
   0 Rh     1.332407    0.771009    6.006419    ( 0.0000,  0.0000,  0.0000)
   1 Rh     4.027385    0.776784    6.022996    ( 0.0000,  0.0000,  0.0000)
   2 Rh     6.731649    0.770671    6.007395    ( 0.0000,  0.0000,  0.0000)
   3 Rh     2.686171    3.099110    6.022232    ( 0.0000,  0.0000,  0.0000)
   4 Rh     5.372555    3.101271    6.017388    ( 0.0000,  0.0000,  0.0000)
   5 Rh     8.062189    3.097802    6.016967    ( 0.0000,  0.0000,  0.0000)
   6 Rh     4.032558    5.443431    6.008450    ( 0.0000,  0.0000,  0.0000)
   7 Rh     6.714192    5.432140    6.018039    ( 0.0000,  0.0000,  0.0000)
   8 Rh     9.405337    5.430041    6.020668    ( 0.0000,  0.0000,  0.0000)
   9 Rh     0.002357    1.551967    8.197556    ( 0.0000,  0.0000,  0.0000)
  10 Rh     2.715066    1.565565    8.222996    ( 0.0000,  0.0000,  0.0000)
  11 Rh     5.362707    1.557406    8.183662    ( 0.0000,  0.0000,  0.0000)
  12 Rh     1.344969    3.876395    8.194288    ( 0.0000,  0.0000,  0.0000)
  13 Rh     4.031802    3.869508    8.177351    ( 0.0000,  0.0000,  0.0000)
  14 Rh     6.715924    3.878376    8.192813    ( 0.0000,  0.0000,  0.0000)
  15 Rh     2.687298    6.206262    8.196052    ( 0.0000,  0.0000,  0.0000)
  16 Rh     5.376056    6.206470    8.198018    ( 0.0000,  0.0000,  0.0000)
  17 Rh     8.060233    6.207888    8.194295    ( 0.0000,  0.0000,  0.0000)
  18 Rh     0.001268    0.002304   10.372217    ( 0.0000,  0.0000,  0.0000)
  19 Rh     2.684016   -0.008278   10.367636    ( 0.0000,  0.0000,  0.0000)
  20 Rh     5.379158   -0.011931   10.362779    ( 0.0000,  0.0000,  0.0000)
  21 Rh     1.332425    2.326786   10.366175    ( 0.0000,  0.0000,  0.0000)
  22 Rh     4.053435    2.356590   10.548995    ( 0.0000,  0.0000,  0.0000)
  23 Rh     6.748356    2.323718   10.367180    ( 0.0000,  0.0000,  0.0000)
  24 Rh     2.673546    4.673095   10.362085    ( 0.0000,  0.0000,  0.0000)
  25 Rh     5.389603    4.682707   10.379193    ( 0.0000,  0.0000,  0.0000)
  26 Rh     8.063210    4.656101   10.368386    ( 0.0000,  0.0000,  0.0000)
  27 C      4.420615    2.717179   12.283698    ( 0.0000,  0.0000,  0.0000)
  28 O      4.570898    2.867171   13.424351    ( 0.0000,  0.0000,  0.0000)

Unit cell:
           periodic     x           y           z      points  spacing
  1. axis:    yes    8.061017    0.000000    0.000000    40     0.1745
  2. axis:    yes    4.030509    6.981046    0.000000    40     0.1745
  3. axis:    no     0.000000    0.000000   16.387862    81     0.2023

  Lengths:   8.061017   8.061017  16.387862
  Angles:   90.000000  90.000000  60.000000

Effective grid spacing dv^(1/3) = 0.1923

                     log10-error:    total        iterations:
           time      wfs    density  energy       fermi  poisson
iter:   1  00:47:43  -2.92   +inf  -199.142385    3             
iter:   2  00:47:48  -3.98  -2.98  -199.159532    3             
iter:   3  00:47:53  -4.57  -2.77  -199.133114    2             
iter:   4  00:47:57  -5.43  -3.19  -199.130067    3             
iter:   5  00:48:02  -5.07  -3.42  -199.128312    3             
iter:   6  00:48:07  -5.60  -3.62  -199.128008    3             
iter:   7  00:48:11  -5.75  -3.69  -199.127712    3             
iter:   8  00:48:16  -5.73  -3.90  -199.127660    3             
iter:   9  00:48:21  -6.54  -4.05  -199.127679    2             
iter:  10  00:48:25  -6.86  -3.96  -199.127673    2             
iter:  11  00:48:30  -7.08  -4.04  -199.127628    2             
iter:  12  00:48:35  -6.56  -4.24  -199.127609    2             
iter:  13  00:48:40  -6.95  -4.43  -199.127603    2             
iter:  14  00:48:44  -7.66  -4.51  -199.127596    2             

Converged after 14 iterations.

Dipole moment: (1.623915, 0.623102, -0.189649) |e|*Ang

Energy contributions relative to reference atoms: (reference = -3516703.949422)

Kinetic:       -105.240476
Potential:      +33.468624
External:        +0.000000
XC:            -124.391024
Entropy (-ST):   -1.581032
Local:           -2.174204
--------------------------
Free energy:   -199.918112
Extrapolated:  -199.127596

Fermi level: 1.90770

Showing only first 2 kpts
 Kpt  Band  Eigenvalues  Occupancy
  0   205      1.78647    0.19268
  0   206      1.84078    0.16533
  0   207      1.92882    0.11185
  0   208      2.03070    0.05655

  1   205      1.87402    0.14586
  1   206      1.90829    0.12463
  1   207      1.92707    0.11294
  1   208      1.93894    0.10564


No gap

Forces in eV/Ang:
  0 Rh    0.01063   -0.00198    0.03513
  1 Rh   -0.00993    0.00165    0.01496
  2 Rh    0.00472    0.00012   -0.00557
  3 Rh   -0.00264   -0.01519    0.01527
  4 Rh    0.00217   -0.00412   -0.02090
  5 Rh   -0.00082    0.00994    0.00840
  6 Rh    0.00637    0.01419   -0.01099
  7 Rh    0.00741    0.00060    0.00376
  8 Rh   -0.00608   -0.00135    0.00945
  9 Rh    0.03260   -0.00308   -0.04083
 10 Rh   -0.00120    0.01206   -0.00644
 11 Rh    0.01311    0.02221    0.03578
 12 Rh    0.00400   -0.00049   -0.02093
 13 Rh    0.01425    0.00643    0.04591
 14 Rh   -0.00125   -0.00122   -0.00056
 15 Rh    0.01857    0.01989   -0.03260
 16 Rh    0.01066    0.03653   -0.02911
 17 Rh    0.00234   -0.00091   -0.01944
 18 Rh    0.00747    0.00620   -0.01193
 19 Rh    0.04370    0.05464    0.02646
 20 Rh   -0.00671    0.06525   -0.01069
 21 Rh    0.05840    0.02194    0.02016
 22 Rh   -0.10360   -0.12548   -0.45980
 23 Rh   -0.02811    0.01057   -0.06289
 24 Rh    0.04270   -0.01627   -0.02633
 25 Rh    0.00921    0.02140   -0.13251
 26 Rh    0.00359    0.00615   -0.01881
 27 C    -0.32575   -0.33422    0.17162
 28 O     0.19197    0.19286    0.43103

System changes: positions 

Initializing position-dependent things.

Density initialized from wave functions
                                           
                                           
                                           
                                           
                                           
                                           
                    O                      
                   C                       
                Rh     Rh     Rh           
                  Rh                       
            Rh   Rh     RRh    Rh          
       Rh    RRh   RRh    Rh               
                                           
        Rh     Rh   RRh    Rh    Rh        
                                           
                Rh    Rh     Rh            
           Rh    Rh     Rh                 
                                           
                                           
                                           
                                           

Positions:
   0 Rh     1.330899    0.770071    6.006210    ( 0.0000,  0.0000,  0.0000)
   1 Rh     4.026432    0.776940    6.024261    ( 0.0000,  0.0000,  0.0000)
   2 Rh     6.734234    0.769766    6.005477    ( 0.0000,  0.0000,  0.0000)
   3 Rh     2.685824    3.097886    6.023421    ( 0.0000,  0.0000,  0.0000)
   4 Rh     5.372463    3.100875    6.016250    ( 0.0000,  0.0000,  0.0000)
   5 Rh     8.062378    3.097469    6.017138    ( 0.0000,  0.0000,  0.0000)
   6 Rh     4.033136    5.446423    6.006427    ( 0.0000,  0.0000,  0.0000)
   7 Rh     6.714039    5.432585    6.018137    ( 0.0000,  0.0000,  0.0000)
   8 Rh     9.405109    5.430006    6.021353    ( 0.0000,  0.0000,  0.0000)
   9 Rh     0.004163    1.551772    8.196142    ( 0.0000,  0.0000,  0.0000)
  10 Rh     2.719829    1.568588    8.227163    ( 0.0000,  0.0000,  0.0000)
  11 Rh     5.360785    1.559656    8.183953    ( 0.0000,  0.0000,  0.0000)
  12 Rh     1.345441    3.875796    8.193223    ( 0.0000,  0.0000,  0.0000)
  13 Rh     4.032572    3.867553    8.177150    ( 0.0000,  0.0000,  0.0000)
  14 Rh     6.715317    3.878149    8.192751    ( 0.0000,  0.0000,  0.0000)
  15 Rh     2.688252    6.207281    8.194732    ( 0.0000,  0.0000,  0.0000)
  16 Rh     5.376706    6.208207    8.197230    ( 0.0000,  0.0000,  0.0000)
  17 Rh     8.060073    6.208372    8.193322    ( 0.0000,  0.0000,  0.0000)
  18 Rh     0.001745    0.002790   10.372026    ( 0.0000,  0.0000,  0.0000)
  19 Rh     2.685699   -0.006893   10.368459    ( 0.0000,  0.0000,  0.0000)
  20 Rh     5.379222   -0.010477   10.361381    ( 0.0000,  0.0000,  0.0000)
  21 Rh     1.333787    2.327660   10.366516    ( 0.0000,  0.0000,  0.0000)
  22 Rh     4.051285    2.354428   10.548683    ( 0.0000,  0.0000,  0.0000)
  23 Rh     6.751547    2.323626   10.363944    ( 0.0000,  0.0000,  0.0000)
  24 Rh     2.673521    4.674802   10.359873    ( 0.0000,  0.0000,  0.0000)
  25 Rh     5.392453    4.688146   10.374648    ( 0.0000,  0.0000,  0.0000)
  26 Rh     8.063539    4.656635   10.367344    ( 0.0000,  0.0000,  0.0000)
  27 C      4.393521    2.689740   12.294328    ( 0.0000,  0.0000,  0.0000)
  28 O      4.583848    2.880104   13.423581    ( 0.0000,  0.0000,  0.0000)

Unit cell:
           periodic     x           y           z      points  spacing
  1. axis:    yes    8.061017    0.000000    0.000000    40     0.1745
  2. axis:    yes    4.030509    6.981046    0.000000    40     0.1745
  3. axis:    no     0.000000    0.000000   16.387862    81     0.2023

  Lengths:   8.061017   8.061017  16.387862
  Angles:   90.000000  90.000000  60.000000

Effective grid spacing dv^(1/3) = 0.1923

                     log10-error:    total        iterations:
           time      wfs    density  energy       fermi  poisson
iter:   1  00:48:51  -2.73   +inf  -199.171125    3             
iter:   2  00:48:56  -3.79  -2.90  -199.188034    3             
iter:   3  00:49:01  -4.35  -2.74  -199.160791    2             
iter:   4  00:49:05  -5.25  -2.98  -199.152380    2             
iter:   5  00:49:10  -5.09  -3.42  -199.150664    3             
iter:   6  00:49:15  -5.09  -3.59  -199.150113    3             
iter:   7  00:49:20  -5.73  -3.73  -199.149874    3             
iter:   8  00:49:24  -5.93  -3.85  -199.149780    3             
iter:   9  00:49:29  -6.35  -3.98  -199.149836    2             
iter:  10  00:49:34  -6.74  -3.91  -199.149774    2             
iter:  11  00:49:38  -6.85  -3.96  -199.149739    2             
iter:  12  00:49:43  -6.42  -4.22  -199.149719    2             
iter:  13  00:49:48  -7.12  -4.45  -199.149718    2             
iter:  14  00:49:52  -7.54  -4.48  -199.149709    2             

Converged after 14 iterations.

Dipole moment: (1.585888, 0.516901, -0.184078) |e|*Ang

Energy contributions relative to reference atoms: (reference = -3516703.949422)

Kinetic:       -105.514643
Potential:      +33.694802
External:        +0.000000
XC:            -124.355665
Entropy (-ST):   -1.578441
Local:           -2.184984
--------------------------
Free energy:   -199.938930
Extrapolated:  -199.149709

Fermi level: 1.90941

Showing only first 2 kpts
 Kpt  Band  Eigenvalues  Occupancy
  0   205      1.78820    0.19266
  0   206      1.84263    0.16525
  0   207      1.93024    0.11203
  0   208      2.03209    0.05668

  1   205      1.87687    0.14516
  1   206      1.91179    0.12351
  1   207      1.92875    0.11295
  1   208      1.94104    0.10539


No gap

Forces in eV/Ang:
  0 Rh    0.04128    0.01265    0.03379
  1 Rh   -0.00096    0.00210   -0.00453
  2 Rh   -0.02993    0.01447   -0.00029
  3 Rh    0.00304   -0.00548   -0.00424
  4 Rh    0.00363   -0.00057   -0.02696
  5 Rh   -0.00429    0.02004   -0.00492
  6 Rh    0.00215   -0.02292   -0.00560
  7 Rh    0.01247   -0.00604   -0.00932
  8 Rh   -0.00290   -0.00052   -0.00666
  9 Rh    0.02422    0.00474   -0.04009
 10 Rh   -0.06947   -0.02542   -0.06871
 11 Rh    0.05927   -0.00061    0.03308
 12 Rh   -0.00030    0.01456   -0.01744
 13 Rh    0.01437    0.05192    0.05448
 14 Rh    0.01321    0.00506   -0.01201
 15 Rh    0.01197    0.01577   -0.02905
 16 Rh    0.01254    0.03226   -0.03414
 17 Rh    0.01035   -0.00903   -0.01764
 18 Rh    0.00453    0.00657   -0.00095
 19 Rh    0.03188    0.04645    0.03293
 20 Rh    0.01010    0.05582    0.00251
 21 Rh    0.04298    0.02454    0.02932
 22 Rh   -0.08304   -0.11188   -0.34391
 23 Rh   -0.06083    0.02044   -0.04133
 24 Rh    0.05431   -0.01923   -0.00922
 25 Rh   -0.01913   -0.03369   -0.11656
 26 Rh    0.00644    0.00284   -0.00158
 27 C    -0.19194   -0.19993    0.18666
 28 O     0.09358    0.09429    0.35238

System changes: positions 

Initializing position-dependent things.

Density initialized from wave functions
                                           
                                           
                                           
                                           
                                           
                                           
                    O                      
                   C                       
                Rh     Rh     Rh           
                  Rh                       
            Rh   Rh     RRh    Rh          
       Rh    RRh   RRh    Rh               
                                           
        Rh     Rh   RRh    Rh    Rh        
                                           
                Rh    Rh     Rh            
           Rh    Rh     Rh                 
                                           
                                           
                                           
                                           

Positions:
   0 Rh     1.330409    0.769526    6.006536    ( 0.0000,  0.0000,  0.0000)
   1 Rh     4.025622    0.777112    6.025153    ( 0.0000,  0.0000,  0.0000)
   2 Rh     6.735846    0.769276    6.003754    ( 0.0000,  0.0000,  0.0000)
   3 Rh     2.685596    3.096765    6.024250    ( 0.0000,  0.0000,  0.0000)
   4 Rh     5.372451    3.100535    6.014713    ( 0.0000,  0.0000,  0.0000)
   5 Rh     8.062458    3.097567    6.017088    ( 0.0000,  0.0000,  0.0000)
   6 Rh     4.033660    5.448503    6.004521    ( 0.0000,  0.0000,  0.0000)
   7 Rh     6.714142    5.432843    6.017948    ( 0.0000,  0.0000,  0.0000)
   8 Rh     9.404874    5.429971    6.021710    ( 0.0000,  0.0000,  0.0000)
   9 Rh     0.006124    1.551720    8.194214    ( 0.0000,  0.0000,  0.0000)
  10 Rh     2.722542    1.570654    8.229338    ( 0.0000,  0.0000,  0.0000)
  11 Rh     5.360284    1.561541    8.184754    ( 0.0000,  0.0000,  0.0000)
  12 Rh     1.345838    3.875582    8.191995    ( 0.0000,  0.0000,  0.0000)
  13 Rh     4.033498    3.866886    8.177944    ( 0.0000,  0.0000,  0.0000)
  14 Rh     6.715065    3.878057    8.192427    ( 0.0000,  0.0000,  0.0000)
  15 Rh     2.689267    6.208428    8.193085    ( 0.0000,  0.0000,  0.0000)
  16 Rh     5.377501    6.210263    8.195923    ( 0.0000,  0.0000,  0.0000)
  17 Rh     8.060144    6.208617    8.192162    ( 0.0000,  0.0000,  0.0000)
  18 Rh     0.002223    0.003327   10.371957    ( 0.0000,  0.0000,  0.0000)
  19 Rh     2.687662   -0.004941   10.369821    ( 0.0000,  0.0000,  0.0000)
  20 Rh     5.379540   -0.008306   10.360306    ( 0.0000,  0.0000,  0.0000)
  21 Rh     1.335628    2.328866   10.367405    ( 0.0000,  0.0000,  0.0000)
  22 Rh     4.048013    2.350621   10.543049    ( 0.0000,  0.0000,  0.0000)
  23 Rh     6.753194    2.323946   10.360542    ( 0.0000,  0.0000,  0.0000)
  24 Rh     2.674472    4.675981   10.357900    ( 0.0000,  0.0000,  0.0000)
  25 Rh     5.394522    4.692129   10.368795    ( 0.0000,  0.0000,  0.0000)
  26 Rh     8.063948    4.657134   10.366549    ( 0.0000,  0.0000,  0.0000)
  27 C      4.367423    2.663207   12.308988    ( 0.0000,  0.0000,  0.0000)
  28 O      4.596061    2.892307   13.426448    ( 0.0000,  0.0000,  0.0000)

Unit cell:
           periodic     x           y           z      points  spacing
  1. axis:    yes    8.061017    0.000000    0.000000    40     0.1745
  2. axis:    yes    4.030509    6.981046    0.000000    40     0.1745
  3. axis:    no     0.000000    0.000000   16.387862    81     0.2023

  Lengths:   8.061017   8.061017  16.387862
  Angles:   90.000000  90.000000  60.000000

Effective grid spacing dv^(1/3) = 0.1923

                     log10-error:    total        iterations:
           time      wfs    density  energy       fermi  poisson
iter:   1  00:50:00  -2.71   +inf  -199.240079    3             
iter:   2  00:50:04  -3.28  -2.59  -199.514106    3             
iter:   3  00:50:09  -3.74  -2.28  -199.171658    2             
iter:   4  00:50:14  -5.00  -3.08  -199.166286    3             
iter:   5  00:50:18  -4.69  -3.37  -199.163083    3             
iter:   6  00:50:23  -5.12  -3.56  -199.162588    3             
iter:   7  00:50:28  -5.58  -3.62  -199.162169    3             
iter:   8  00:50:32  -5.56  -3.80  -199.162044    3             
iter:   9  00:50:37  -6.27  -3.93  -199.162124    2             
iter:  10  00:50:42  -6.62  -3.83  -199.162016    2             
iter:  11  00:50:46  -6.68  -3.94  -199.161973    2             
iter:  12  00:50:51  -6.47  -4.17  -199.161947    2             
iter:  13  00:50:56  -7.01  -4.36  -199.161949    2             
iter:  14  00:51:00  -7.47  -4.44  -199.161945    2             

Converged after 14 iterations.

Dipole moment: (1.467609, 0.365797, -0.174419) |e|*Ang

Energy contributions relative to reference atoms: (reference = -3516703.949422)

Kinetic:       -106.222569
Potential:      +34.240813
External:        +0.000000
XC:            -124.206402
Entropy (-ST):   -1.576532
Local:           -2.185521
--------------------------
Free energy:   -199.950211
Extrapolated:  -199.161945

Fermi level: 1.91413

Showing only first 2 kpts
 Kpt  Band  Eigenvalues  Occupancy
  0   205      1.79263    0.19279
  0   206      1.84740    0.16522
  0   207      1.93429    0.11244
  0   208      2.03680    0.05669

  1   205      1.88243    0.14465
  1   206      1.91753    0.12287
  1   207      1.93273    0.11340
  1   208      1.94625    0.10509


No gap

Forces in eV/Ang:
  0 Rh    0.06164    0.02414    0.02600
  1 Rh    0.01056    0.00391   -0.01442
  2 Rh   -0.05627    0.02508    0.00791
  3 Rh    0.01079    0.00704   -0.01446
  4 Rh    0.00305    0.00314   -0.01831
  5 Rh   -0.00683    0.02654   -0.01352
  6 Rh   -0.00244   -0.05374    0.00479
  7 Rh    0.01482   -0.01198   -0.01608
  8 Rh    0.00319    0.00138   -0.01629
  9 Rh    0.01264    0.01417   -0.02677
 10 Rh   -0.11502   -0.05280   -0.11809
 11 Rh    0.08534   -0.01832    0.02087
 12 Rh   -0.00221    0.02807   -0.00882
 13 Rh    0.01197    0.07850    0.04926
 14 Rh    0.02707    0.01162   -0.02531
 15 Rh    0.00374    0.01000   -0.01790
 16 Rh    0.01474    0.02434   -0.03077
 17 Rh    0.01794   -0.01239   -0.00932
 18 Rh    0.00239    0.00785   -0.00614
 19 Rh    0.01067    0.02113    0.01431
 20 Rh    0.03223    0.03125    0.00016
 21 Rh    0.01086    0.02573    0.01529
 22 Rh   -0.01836   -0.04794   -0.01297
 23 Rh   -0.08123    0.03232   -0.01898
 24 Rh    0.05859   -0.01297   -0.00189
 25 Rh   -0.04323   -0.08618   -0.08101
 26 Rh    0.00914    0.00024    0.00020
 27 C    -0.00835   -0.01376    0.17241
 28 O    -0.04974   -0.04736    0.07544

System changes: positions 

Initializing position-dependent things.

Density initialized from wave functions
                                           
                                           
                                           
                                           
                                           
                                           
                    O                      
                   C                       
                Rh     Rh     Rh           
                  Rh                       
            Rh   Rh     RRh    Rh          
       Rh    RRh   RRh    Rh               
                                           
        Rh     Rh   RRh    Rh    Rh        
                                           
                Rh    Rh     Rh            
           Rh    Rh     Rh                 
                                           
                                           
                                           
                                           

Positions:
   0 Rh     1.331445    0.769905    6.007106    ( 0.0000,  0.0000,  0.0000)
   1 Rh     4.025754    0.777174    6.024954    ( 0.0000,  0.0000,  0.0000)
   2 Rh     6.734952    0.769679    6.003860    ( 0.0000,  0.0000,  0.0000)
   3 Rh     2.685754    3.096822    6.024055    ( 0.0000,  0.0000,  0.0000)
   4 Rh     5.372514    3.100571    6.014316    ( 0.0000,  0.0000,  0.0000)
   5 Rh     8.062346    3.098041    6.016892    ( 0.0000,  0.0000,  0.0000)
   6 Rh     4.033643    5.447692    6.004552    ( 0.0000,  0.0000,  0.0000)
   7 Rh     6.714418    5.432652    6.017688    ( 0.0000,  0.0000,  0.0000)
   8 Rh     9.404894    5.429986    6.021462    ( 0.0000,  0.0000,  0.0000)
   9 Rh     0.006456    1.551925    8.193604    ( 0.0000,  0.0000,  0.0000)
  10 Rh     2.720674    1.569850    8.227366    ( 0.0000,  0.0000,  0.0000)
  11 Rh     5.361681    1.561350    8.185272    ( 0.0000,  0.0000,  0.0000)
  12 Rh     1.345822    3.876017    8.191760    ( 0.0000,  0.0000,  0.0000)
  13 Rh     4.033744    3.868134    8.178972    ( 0.0000,  0.0000,  0.0000)
  14 Rh     6.715479    3.878227    8.192031    ( 0.0000,  0.0000,  0.0000)
  15 Rh     2.689410    6.208670    8.192652    ( 0.0000,  0.0000,  0.0000)
  16 Rh     5.377770    6.210798    8.195300    ( 0.0000,  0.0000,  0.0000)
  17 Rh     8.060435    6.208419    8.191926    ( 0.0000,  0.0000,  0.0000)
  18 Rh     0.002287    0.003466   10.371838    ( 0.0000,  0.0000,  0.0000)
  19 Rh     2.688029   -0.004353   10.370195    ( 0.0000,  0.0000,  0.0000)
  20 Rh     5.380000   -0.007497   10.360317    ( 0.0000,  0.0000,  0.0000)
  21 Rh     1.336085    2.329368   10.367772    ( 0.0000,  0.0000,  0.0000)
  22 Rh     4.047150    2.349178   10.540146    ( 0.0000,  0.0000,  0.0000)
  23 Rh     6.751720    2.324510   10.360003    ( 0.0000,  0.0000,  0.0000)
  24 Rh     2.675614    4.675651   10.357811    ( 0.0000,  0.0000,  0.0000)
  25 Rh     5.393853    4.690809   10.366946    ( 0.0000,  0.0000,  0.0000)
  26 Rh     8.064096    4.657156   10.366514    ( 0.0000,  0.0000,  0.0000)
  27 C      4.366440    2.662105   12.313216    ( 0.0000,  0.0000,  0.0000)
  28 O      4.595828    2.892114   13.429209    ( 0.0000,  0.0000,  0.0000)

Unit cell:
           periodic     x           y           z      points  spacing
  1. axis:    yes    8.061017    0.000000    0.000000    40     0.1745
  2. axis:    yes    4.030509    6.981046    0.000000    40     0.1745
  3. axis:    no     0.000000    0.000000   16.387862    81     0.2023

  Lengths:   8.061017   8.061017  16.387862
  Angles:   90.000000  90.000000  60.000000

Effective grid spacing dv^(1/3) = 0.1923

                     log10-error:    total        iterations:
           time      wfs    density  energy       fermi  poisson
iter:   1  00:51:08  -4.15   +inf  -199.174882    3             
iter:   2  00:51:12  -4.08  -2.99  -199.238287    3             
iter:   3  00:51:17  -4.49  -2.62  -199.164280    2             
iter:   4  00:51:22  -5.85  -3.75  -199.164179    2             
iter:   5  00:51:26  -5.88  -3.85  -199.164072    3             
iter:   6  00:51:31  -6.40  -4.14  -199.164067    2             
iter:   7  00:51:36  -7.04  -4.24  -199.164054    2             
iter:   8  00:51:40  -6.80  -4.35  -199.164060    2             
iter:   9  00:51:45  -7.50  -4.42  -199.164044    2             

Converged after 9 iterations.

Dipole moment: (1.391317, 0.318798, -0.166681) |e|*Ang

Energy contributions relative to reference atoms: (reference = -3516703.949422)

Kinetic:       -106.173864
Potential:      +34.163053
External:        +0.000000
XC:            -124.193189
Entropy (-ST):   -1.576771
Local:           -2.171658
--------------------------
Free energy:   -199.952430
Extrapolated:  -199.164044

Fermi level: 1.91856

Showing only first 2 kpts
 Kpt  Band  Eigenvalues  Occupancy
  0   205      1.79675    0.19293
  0   206      1.85174    0.16527
  0   207      1.93838    0.11265
  0   208      2.04154    0.05655

  1   205      1.88704    0.14454
  1   206      1.92189    0.12292
  1   207      1.93672    0.11368
  1   208      1.95057    0.10516


No gap

Forces in eV/Ang:
  0 Rh    0.04042    0.01532    0.01599
  1 Rh    0.01514    0.00749   -0.00375
  2 Rh   -0.03893    0.01745    0.00833
  3 Rh    0.01586    0.01083   -0.00425
  4 Rh   -0.00180    0.00235   -0.00334
  5 Rh   -0.00548    0.01909   -0.01049
  6 Rh   -0.00206   -0.03819    0.00732
  7 Rh    0.00946   -0.00951   -0.01125
  8 Rh    0.00786    0.00333   -0.01024
  9 Rh    0.00849    0.01515   -0.01730
 10 Rh   -0.07676   -0.03430   -0.09803
 11 Rh    0.04949   -0.00924    0.00870
 12 Rh    0.00215    0.02421   -0.00580
 13 Rh    0.00567    0.04378    0.02954
 14 Rh    0.02664    0.01236   -0.02832
 15 Rh    0.00215    0.00779   -0.01451
 16 Rh    0.01409    0.01869   -0.02343
 17 Rh    0.01671   -0.00454   -0.00336
 18 Rh    0.00462    0.00699   -0.01678
 19 Rh    0.00150    0.00198   -0.00809
[...]
iter:  10  01:14:54  -6.38  -3.74  -199.197526    2             
iter:  11  01:14:58  -6.92  -4.01  -199.197496    2             
iter:  12  01:15:03  -6.64  -4.12  -199.197471    2             
iter:  13  01:15:08  -6.92  -4.36  -199.197471    2             
iter:  14  01:15:12  -7.54  -4.57  -199.197470    2             

Converged after 14 iterations.

Dipole moment: (0.707345, -0.287288, -0.180940) |e|*Ang

Energy contributions relative to reference atoms: (reference = -3516703.949422)

Kinetic:       -109.617081
Potential:      +36.925717
External:        +0.000000
XC:            -123.547063
Entropy (-ST):   -1.578516
Local:           -2.169786
--------------------------
Free energy:   -199.986728
Extrapolated:  -199.197470

Fermi level: 1.91405

Showing only first 2 kpts
 Kpt  Band  Eigenvalues  Occupancy
  0   205      1.79232    0.19290
  0   206      1.84790    0.16490
  0   207      1.93678    0.11086
  0   208      2.03723    0.05647

  1   205      1.88223    0.14472
  1   206      1.91845    0.12225
  1   207      1.93436    0.11235
  1   208      1.94556    0.10547


No gap

Forces in eV/Ang:
  0 Rh   -0.03965   -0.02903    0.01654
  1 Rh    0.01910   -0.02011    0.00932
  2 Rh    0.07453   -0.03193    0.00257
  3 Rh   -0.00667    0.03326    0.01700
  4 Rh    0.01607    0.02911   -0.01256
  5 Rh   -0.03115   -0.00707    0.00229
  6 Rh    0.00913    0.07892    0.00015
  7 Rh   -0.03686   -0.02093   -0.00057
  8 Rh    0.02813    0.00846   -0.01403
  9 Rh   -0.01496   -0.01056    0.00134
 10 Rh   -0.00663    0.00430    0.02002
 11 Rh    0.00639   -0.00422    0.00221
 12 Rh   -0.03036    0.01785   -0.00409
 13 Rh   -0.00939    0.00812    0.00190
 14 Rh    0.08985    0.03237   -0.06972
 15 Rh    0.03493    0.03555   -0.07949
 16 Rh   -0.00614    0.01286    0.00176
 17 Rh    0.00295   -0.03866    0.02274
 18 Rh   -0.00130   -0.00580    0.04248
 19 Rh    0.02009    0.03818    0.03447
 20 Rh   -0.02229    0.00448   -0.03211
 21 Rh    0.03927   -0.01281    0.02208
 22 Rh   -0.00664    0.01801    0.08739
 23 Rh    0.03026   -0.02678    0.04174
 24 Rh    0.00016   -0.01588    0.02781
 25 Rh    0.00005    0.04986    0.00365
 26 Rh   -0.01442   -0.00401   -0.00313
 27 C    -0.12017   -0.11132   -0.01730
 28 O    -0.02466   -0.02517   -0.06022

System changes: positions 

Initializing position-dependent things.

Density initialized from wave functions
                                           
                                           
                                           
                                           
                                           
                                           
                    O                      
                   C                       
                Rh     Rh     Rh           
                  Rh                       
            Rh   Rh     RRh    Rh          
       Rh    RRh   RRh    Rh               
                                           
        Rh     Rh   RRh    Rh    Rh        
                                           
                Rh    Rh     Rh            
           Rh    Rh     Rh                 
                                           
                                           
                                           
                                           

Positions:
   0 Rh     1.357883    0.793049    5.978474    ( 0.0000,  0.0000,  0.0000)
   1 Rh     4.049899    0.800789    5.992918    ( 0.0000,  0.0000,  0.0000)
   2 Rh     6.749209    0.793044    5.976859    ( 0.0000,  0.0000,  0.0000)
   3 Rh     2.711180    3.118933    5.991874    ( 0.0000,  0.0000,  0.0000)
   4 Rh     5.391408    3.119778    5.986702    ( 0.0000,  0.0000,  0.0000)
   5 Rh     8.085049    3.120625    5.981302    ( 0.0000,  0.0000,  0.0000)
   6 Rh     4.053870    5.461620    5.977672    ( 0.0000,  0.0000,  0.0000)
   7 Rh     6.738316    5.454048    5.982206    ( 0.0000,  0.0000,  0.0000)
   8 Rh     9.427394    5.451588    5.985491    ( 0.0000,  0.0000,  0.0000)
   9 Rh     0.028520    1.577254    8.160332    ( 0.0000,  0.0000,  0.0000)
  10 Rh     2.739675    1.591304    8.192548    ( 0.0000,  0.0000,  0.0000)
  11 Rh     5.380120    1.585978    8.168398    ( 0.0000,  0.0000,  0.0000)
  12 Rh     1.370035    3.900087    8.156738    ( 0.0000,  0.0000,  0.0000)
  13 Rh     4.055641    3.883459    8.163036    ( 0.0000,  0.0000,  0.0000)
  14 Rh     6.738530    3.901021    8.153938    ( 0.0000,  0.0000,  0.0000)
  15 Rh     2.710692    6.229996    8.162984    ( 0.0000,  0.0000,  0.0000)
  16 Rh     5.401646    6.232701    8.160505    ( 0.0000,  0.0000,  0.0000)
  17 Rh     8.084873    6.232664    8.157478    ( 0.0000,  0.0000,  0.0000)
  18 Rh     0.027866    0.028840   10.331852    ( 0.0000,  0.0000,  0.0000)
  19 Rh     2.711004    0.016688   10.336708    ( 0.0000,  0.0000,  0.0000)
  20 Rh     5.406372    0.016391   10.333416    ( 0.0000,  0.0000,  0.0000)
  21 Rh     1.357923    2.356862   10.336152    ( 0.0000,  0.0000,  0.0000)
  22 Rh     4.072578    2.369388   10.592181    ( 0.0000,  0.0000,  0.0000)
  23 Rh     6.763598    2.355873   10.324856    ( 0.0000,  0.0000,  0.0000)
  24 Rh     2.704623    4.695096   10.327364    ( 0.0000,  0.0000,  0.0000)
  25 Rh     5.413591    4.698794   10.324731    ( 0.0000,  0.0000,  0.0000)
  26 Rh     8.089312    4.681544   10.330220    ( 0.0000,  0.0000,  0.0000)
  27 C      4.330232    2.628400   12.388245    ( 0.0000,  0.0000,  0.0000)
  28 O      4.518066    2.822893   13.520558    ( 0.0000,  0.0000,  0.0000)

Unit cell:
           periodic     x           y           z      points  spacing
  1. axis:    yes    8.061017    0.000000    0.000000    40     0.1745
  2. axis:    yes    4.030509    6.981046    0.000000    40     0.1745
  3. axis:    no     0.000000    0.000000   16.387862    81     0.2023

  Lengths:   8.061017   8.061017  16.387862
  Angles:   90.000000  90.000000  60.000000

Effective grid spacing dv^(1/3) = 0.1923

                     log10-error:    total        iterations:
           time      wfs    density  energy       fermi  poisson
iter:   1  01:15:20  -3.26   +inf  -199.213690    3             
iter:   2  01:15:24  -4.04  -2.98  -199.229138    3             
iter:   3  01:15:29  -4.51  -2.80  -199.204253    2             
iter:   4  01:15:34  -5.50  -3.14  -199.199965    2             
iter:   5  01:15:38  -5.76  -3.53  -199.199678    2             
iter:   6  01:15:43  -5.61  -3.67  -199.199501    2             
iter:   7  01:15:48  -6.36  -3.90  -199.199477    2             
iter:   8  01:15:52  -6.62  -3.97  -199.199451    2             
iter:   9  01:15:57  -6.61  -4.11  -199.199494    2             
iter:  10  01:16:02  -7.05  -4.13  -199.199456    2             
iter:  11  01:16:06  -7.45  -4.22  -199.199448    2             

Converged after 11 iterations.

Dipole moment: (0.589192, -0.372019, -0.182359) |e|*Ang

Energy contributions relative to reference atoms: (reference = -3516703.949422)

Kinetic:       -109.875926
Potential:      +37.140005
External:        +0.000000
XC:            -123.506992
Entropy (-ST):   -1.578362
Local:           -2.167355
--------------------------
Free energy:   -199.988629
Extrapolated:  -199.199448

Fermi level: 1.91358

Showing only first 2 kpts
 Kpt  Band  Eigenvalues  Occupancy
  0   205      1.79210    0.19279
  0   206      1.84576    0.16584
  0   207      1.93737    0.11020
  0   208      2.03569    0.05694

  1   205      1.88189    0.14465
  1   206      1.91832    0.12204
  1   207      1.93479    0.11180
  1   208      1.94434    0.10593


No gap

Forces in eV/Ang:
  0 Rh    0.00413    0.00572   -0.00166
  1 Rh    0.01092    0.00895    0.00929
  2 Rh    0.01787    0.00322    0.01204
  3 Rh    0.00651    0.00848    0.00514
  4 Rh    0.00521    0.00856    0.00451
  5 Rh    0.00448    0.00353    0.00395
  6 Rh    0.00927    0.01734    0.00759
  7 Rh    0.00030    0.00760    0.00541
  8 Rh    0.01055    0.01007    0.00674
  9 Rh    0.00024    0.00376   -0.00903
 10 Rh   -0.00645    0.00002   -0.00428
 11 Rh    0.01053    0.00022   -0.00215
 12 Rh   -0.00117    0.01123   -0.00428
 13 Rh    0.00056    0.01251   -0.00752
 14 Rh    0.03637    0.01568   -0.01900
 15 Rh    0.01250    0.01464   -0.01200
 16 Rh    0.00438    0.00817   -0.00839
 17 Rh    0.00810   -0.00272    0.00186
 18 Rh    0.00504    0.00086    0.02714
 19 Rh    0.00811    0.00741    0.01051
 20 Rh   -0.00864    0.00264   -0.00210
 21 Rh    0.01348    0.00123   -0.00013
 22 Rh    0.01558    0.01989    0.01714
 23 Rh    0.01039   -0.00839    0.02493
 24 Rh    0.00217   -0.00675    0.02217
 25 Rh   -0.00303    0.01756    0.01865
 26 Rh    0.00002    0.00526    0.01161
 27 C    -0.07361   -0.07346   -0.04608
 28 O    -0.06544   -0.07671   -0.02000

System changes: positions 

Initializing position-dependent things.

Density initialized from wave functions
                                           
                                           
                                           
                                           
                                           
                                           
                    O                      
                   C                       
                Rh     Rh     Rh           
                  Rh                       
            Rh   Rh     RRh    Rh          
       Rh    RRh   RRh    Rh               
                                           
        Rh     Rh   RRh    Rh    Rh        
                                           
                Rh    Rh     Rh            
           Rh    Rh     Rh                 
                                           
                                           
                                           
                                           

Positions:
   0 Rh     1.359445    0.794484    5.976617    ( 0.0000,  0.0000,  0.0000)
   1 Rh     4.051563    0.802729    5.991976    ( 0.0000,  0.0000,  0.0000)
   2 Rh     6.749493    0.794407    5.976750    ( 0.0000,  0.0000,  0.0000)
   3 Rh     2.712923    3.120446    5.990770    ( 0.0000,  0.0000,  0.0000)
   4 Rh     5.393561    3.121201    5.986917    ( 0.0000,  0.0000,  0.0000)
   5 Rh     8.086961    3.123064    5.981169    ( 0.0000,  0.0000,  0.0000)
   6 Rh     4.054866    5.461898    5.977386    ( 0.0000,  0.0000,  0.0000)
   7 Rh     6.740826    5.455656    5.982049    ( 0.0000,  0.0000,  0.0000)
   8 Rh     9.429132    5.453353    5.985555    ( 0.0000,  0.0000,  0.0000)
   9 Rh     0.030227    1.578823    8.158188    ( 0.0000,  0.0000,  0.0000)
  10 Rh     2.740381    1.592374    8.189829    ( 0.0000,  0.0000,  0.0000)
  11 Rh     5.381462    1.587246    8.168217    ( 0.0000,  0.0000,  0.0000)
  12 Rh     1.371859    3.901685    8.156254    ( 0.0000,  0.0000,  0.0000)
  13 Rh     4.056958    3.884654    8.162594    ( 0.0000,  0.0000,  0.0000)
  14 Rh     6.739941    3.902736    8.154242    ( 0.0000,  0.0000,  0.0000)
  15 Rh     2.712037    6.231526    8.163943    ( 0.0000,  0.0000,  0.0000)
  16 Rh     5.403023    6.234222    8.158583    ( 0.0000,  0.0000,  0.0000)
  17 Rh     8.086683    6.234602    8.157237    ( 0.0000,  0.0000,  0.0000)
  18 Rh     0.030010    0.030929   10.330430    ( 0.0000,  0.0000,  0.0000)
  19 Rh     2.711943    0.017726   10.335112    ( 0.0000,  0.0000,  0.0000)
  20 Rh     5.408425    0.018075   10.334316    ( 0.0000,  0.0000,  0.0000)
  21 Rh     1.358979    2.358610   10.334639    ( 0.0000,  0.0000,  0.0000)
  22 Rh     4.073541    2.369683   10.588980    ( 0.0000,  0.0000,  0.0000)
  23 Rh     6.764837    2.357792   10.322995    ( 0.0000,  0.0000,  0.0000)
  24 Rh     2.706682    4.696696   10.327042    ( 0.0000,  0.0000,  0.0000)
  25 Rh     5.414683    4.699821   10.322948    ( 0.0000,  0.0000,  0.0000)
  26 Rh     8.091498    4.683421   10.329643    ( 0.0000,  0.0000,  0.0000)
  27 C      4.327090    2.624715   12.386186    ( 0.0000,  0.0000,  0.0000)
  28 O      4.515829    2.820135   13.518229    ( 0.0000,  0.0000,  0.0000)

Unit cell:
           periodic     x           y           z      points  spacing
  1. axis:    yes    8.061017    0.000000    0.000000    40     0.1745
  2. axis:    yes    4.030509    6.981046    0.000000    40     0.1745
  3. axis:    no     0.000000    0.000000   16.387862    81     0.2023

  Lengths:   8.061017   8.061017  16.387862
  Angles:   90.000000  90.000000  60.000000

Effective grid spacing dv^(1/3) = 0.1923

                     log10-error:    total        iterations:
           time      wfs    density  energy       fermi  poisson
iter:   1  01:16:14  -3.76   +inf  -199.223697    3             
iter:   2  01:16:18  -3.74  -2.83  -199.366333    3             
iter:   3  01:16:23  -4.14  -2.45  -199.200698    2             
iter:   4  01:16:28  -5.47  -3.65  -199.200604    2             
iter:   5  01:16:32  -5.93  -3.72  -199.200459    2             
iter:   6  01:16:37  -6.13  -3.99  -199.200439    2             
iter:   7  01:16:42  -6.95  -4.15  -199.200433    2             
iter:   8  01:16:46  -6.97  -4.22  -199.200476    2             
iter:   9  01:16:51  -6.91  -4.13  -199.200423    2             
iter:  10  01:16:56  -7.70  -4.55  -199.200423    2             

Converged after 10 iterations.

Dipole moment: (0.541981, -0.418865, -0.180616) |e|*Ang

Energy contributions relative to reference atoms: (reference = -3516703.949422)

Kinetic:       -109.409873
Potential:      +36.740456
External:        +0.000000
XC:            -123.570431
Entropy (-ST):   -1.577899
Local:           -2.171626
--------------------------
Free energy:   -199.989373
Extrapolated:  -199.200423

Fermi level: 1.91498

Showing only first 2 kpts
 Kpt  Band  Eigenvalues  Occupancy
  0   205      1.79339    0.19284
  0   206      1.84776    0.16550
  0   207      1.93852    0.11036
  0   208      2.03743    0.05679

  1   205      1.88345    0.14455
  1   206      1.91978    0.12201
  1   207      1.93568    0.11211
  1   208      1.94598    0.10578


No gap

Forces in eV/Ang:
  0 Rh   -0.02740   -0.01590    0.00657
  1 Rh    0.00904   -0.00555    0.01264
  2 Rh    0.04944   -0.01248    0.00909
  3 Rh   -0.00159    0.01409    0.01202
  4 Rh    0.00983    0.01689   -0.00013
  5 Rh   -0.01436   -0.01143    0.00207
  6 Rh    0.01220    0.04808    0.00715
  7 Rh   -0.02372   -0.00513    0.00340
  8 Rh    0.01515    0.00736    0.00263
  9 Rh   -0.01131   -0.00830    0.00138
 10 Rh   -0.00768   -0.00215    0.01774
 11 Rh    0.00680   -0.01130   -0.00070
 12 Rh   -0.01493    0.00988   -0.00122
 13 Rh   -0.01011    0.01149   -0.00676
 14 Rh    0.04862    0.01721   -0.03805
 15 Rh    0.01562    0.01589   -0.03672
 16 Rh   -0.00600    0.00428   -0.00086
 17 Rh    0.00206   -0.01874    0.01149
 18 Rh    0.00120   -0.00414    0.03130
 19 Rh    0.00691    0.01328    0.01464
 20 Rh   -0.01804   -0.00262   -0.02185
 21 Rh    0.01931   -0.00992    0.00747
 22 Rh   -0.00133    0.01906    0.04251
 23 Rh    0.02122   -0.01652    0.03803
 24 Rh   -0.00244   -0.01591    0.02132
 25 Rh   -0.00030    0.02751    0.03209
 26 Rh   -0.01470   -0.00279    0.00423
 27 C    -0.05177   -0.04030   -0.01676
 28 O    -0.05925   -0.06441   -0.01479

Timing:                                      incl.     excl.
-------------------------------------------------------------------
Density initialized from wave functions:    14.915    14.913   0.1% |
 Symmetrize density:                         0.001     0.001   0.0% |
Forces:                                     68.988    68.988   0.6% |
Hamiltonian:                                16.987     0.269   0.0% |
 Atomic:                                     0.022     0.021   0.0% |
  XC Correction:                             0.000     0.000   0.0% |
 Calculate atomic Hamiltonians:              5.004     5.004   0.0% |
 Communicate:                                6.288     6.288   0.1% |
 Initialize Hamiltonian:                     0.001     0.001   0.0% |
 Poisson:                                    0.050     0.050   0.0% |
 XC 3D grid:                                 5.354     5.354   0.1% |
LCAO initialization:                        16.369     0.472   0.0% |
 LCAO eigensolver:                           2.433     0.001   0.0% |
  Calculate projections:                     0.000     0.000   0.0% |
  DenseAtomicCorrection:                     0.000     0.000   0.0% |
  Distribute overlap matrix:                 2.227     2.227   0.0% |
  Orbital Layouts:                           0.072     0.072   0.0% |
  Potential matrix:                          0.108     0.108   0.0% |
  Sum over cells:                            0.025     0.025   0.0% |
 LCAO to grid:                              12.755    12.755   0.1% |
 Set positions (LCAO WFS):                   0.708     0.498   0.0% |
  Basic WFS set positions:                   0.002     0.002   0.0% |
  Basis functions set positions:             0.000     0.000   0.0% |
  P tci:                                     0.001     0.001   0.0% |
  ST tci:                                    0.080     0.080   0.0% |
  mktci:                                     0.127     0.127   0.0% |
PWDescriptor:                                0.037     0.037   0.0% |
Redistribute:                                0.041     0.041   0.0% |
SCF-cycle:                                2255.049    38.954   0.4% |
 Davidson:                                1834.136   360.816   3.4% ||
  Apply H:                                 194.119   189.659   1.8% ||
   HMM T:                                    4.461     4.461   0.0% |
  Subspace diag:                           313.467     0.111   0.0% |
   calc_h_matrix:                          228.403    41.069   0.4% |
    Apply H:                               187.334   182.172   1.7% ||
     HMM T:                                  5.162     5.162   0.0% |
   diagonalize:                             18.260    18.260   0.2% |
   rotate_psi:                              66.693    66.693   0.6% |
  calc. matrices:                          660.741   290.533   2.7% ||
   Apply H:                                370.209   361.367   3.4% ||
    HMM T:                                   8.842     8.842   0.1% |
  diagonalize:                             194.514   194.514   1.8% ||
  rotate_psi:                              110.478   110.478   1.0% |
 Density:                                  177.127     0.017   0.0% |
  Atomic density matrices:                   2.505     2.505   0.0% |
  Mix:                                      76.696    76.696   0.7% |
  Multipole moments:                         0.217     0.217   0.0% |
  Pseudo density:                           97.690    97.674   0.9% |
   Symmetrize density:                       0.017     0.017   0.0% |
 Hamiltonian:                              192.863     2.897   0.0% |
  Atomic:                                    0.219     0.216   0.0% |
   XC Correction:                            0.004     0.004   0.0% |
  Calculate atomic Hamiltonians:            56.375    56.375   0.5% |
  Communicate:                              73.050    73.050   0.7% |
  Poisson:                                   0.495     0.495   0.0% |
  XC 3D grid:                               59.826    59.826   0.6% |
 Orthonormalize:                            11.970     0.015   0.0% |
  calc_s_matrix:                             1.613     1.613   0.0% |
  inverse-cholesky:                          0.894     0.894   0.0% |
  projections:                               6.720     6.720   0.1% |
  rotate_psi_s:                              2.728     2.728   0.0% |
Set symmetry:                                0.002     0.002   0.0% |
Other:                                    8320.587  8320.587  77.8% |------------------------------|
-------------------------------------------------------------------
Total:                                             10692.975 100.0%

Memory usage: 915.46 MiB
Date: Fri Mar 11 01:16:58 2022
