
  ___ ___ ___ _ _ _  
 |   |   |_  | | | | 
 | | | | | . | | | | 
 |__ |  _|___|_____|  19.8.1
 |___|_|             

User:   ermag@vera08-3
Date:   Fri Mar 11 10:11:30 2022
Arch:   x86_64
Pid:    161300
Python: 3.7.2
gpaw:   /apps/Vera/software/GPAW/19.8.1-intel-2019a-Python-3.7.2/lib/python3.7/site-packages/gpaw
_gpaw:  /apps/Vera/software/GPAW/19.8.1-intel-2019a-Python-3.7.2/bin/
        gpaw-python
ase:    /apps/Vera/software/ASE/3.18.0-intel-2019a-Python-3.7.2/lib/python3.7/site-packages/ase (version 3.18.0)
numpy:  /apps/Vera/software/SciPy-bundle/2019.03-intel-2019a/lib/python3.7/site-packages/numpy (version 1.16.2)
scipy:  /apps/Vera/software/SciPy-bundle/2019.03-intel-2019a/lib/python3.7/site-packages/scipy (version 1.2.1)
libxc:  4.3.4
units:  Angstrom and eV
cores:  64

Input parameters:
  kpts: [4 4 1]
  mode: {ecut: 450.00000000000006,
         gammacentered: False,
         name: pw}
  xc: PBE

System changes: positions, numbers, cell, pbc, initial_charges, initial_magmoms 

Initialize ...

Rh-setup:
  name: Rhodium
  id: 4e1d209aee696a641de1ffa1459b299f
  Z: 45
  valence: 15
  core: 30
  charge: 0.0
  file: /apps/Common/software/GPAW-setups/0.9.20000/Rh.PBE.gz
  compensation charges: gauss, rc=0.38, lmax=2
  cutoffs: 2.48(filt), 2.35(core),
  valence states:
                energy  radius
    5s(1.00)    -4.297   1.270
    4p(6.00)   -50.429   1.381
    5p(0.00)    -0.852   1.381
    4d(8.00)    -5.942   1.244
    *s          22.915   1.270
    *d          21.270   1.244

  Using partial waves for Rh as LCAO basis

C-setup:
  name: Carbon
  id: 4aa54d4b901d75f77cc0ea3eec22967b
  Z: 6
  valence: 4
  core: 2
  charge: 0.0
  file: /apps/Common/software/GPAW-setups/0.9.20000/C.PBE.gz
  compensation charges: gauss, rc=0.20, lmax=2
  cutoffs: 1.14(filt), 1.14(core),
  valence states:
                energy  radius
    2s(2.00)   -13.751   0.635
    2p(2.00)    -5.284   0.635
    *s          13.461   0.635
    *p          21.927   0.635
    *d           0.000   0.635

  Using partial waves for C as LCAO basis

O-setup:
  name: Oxygen
  id: 32ecd46bf208036f09c70b0ec9a88b78
  Z: 8
  valence: 6
  core: 2
  charge: 0.0
  file: /apps/Common/software/GPAW-setups/0.9.20000/O.PBE.gz
  compensation charges: gauss, rc=0.21, lmax=2
  cutoffs: 1.17(filt), 0.83(core),
  valence states:
                energy  radius
    2s(2.00)   -23.961   0.688
    2p(4.00)    -9.029   0.598
    *s           3.251   0.688
    *p          18.182   0.598
    *d           0.000   0.619

  Using partial waves for O as LCAO basis

Reference energy: -3516703.949422

Spin-paired calculation

Occupation numbers:
  Fermi-Dirac: width=0.1000 eV

Convergence criteria:
  Maximum total energy change: 0.0005 eV / electron
  Maximum integral of absolute density change: 0.0001 electrons
  Maximum integral of absolute eigenstate change: 4e-08 eV^2
  Maximum number of iterations: 333

Symmetries present (total): 1

  ( 1  0  0)
  ( 0  1  0)
  ( 0  0  1)

16 k-points: 4 x 4 x 1 Monkhorst-Pack grid
8 k-points in the irreducible part of the Brillouin zone
       k-points in crystal coordinates                weights
   0:     0.12500000   -0.37500000    0.00000000          2/16
   1:     0.12500000   -0.12500000    0.00000000          2/16
   2:     0.12500000    0.12500000    0.00000000          2/16
   3:     0.12500000    0.37500000    0.00000000          2/16
   4:     0.37500000   -0.37500000    0.00000000          2/16
   5:     0.37500000   -0.12500000    0.00000000          2/16
   6:     0.37500000    0.12500000    0.00000000          2/16
   7:     0.37500000    0.37500000    0.00000000          2/16

Wave functions: Plane wave expansion
  Cutoff energy: 450.000 eV
  Number of coefficients (min, max): 19970, 20000
  Pulay-stress correction: 0.000000 eV/Ang^3 (de/decut=0.000000)
  Using FFTW library
  ScaLapack parameters: grid=1x1, blocksize=None
  Wavefunction extrapolation:
    Improved wavefunction reuse through dual PAW basis 

Eigensolver
   Davidson(niter=2, smin=None, normalize=True) 

Densities:
  Coarse grid: 40*40*81 grid
  Fine grid: 80*80*162 grid
  Total Charge: 0.000000 

Density mixing:
  Method: separate
  Backend: pulay
  Linear mixing parameter: 0.05
  Mixing with 5 old densities
  Damping of long wave oscillations: 50 

Hamiltonian:
  XC and Coulomb potentials evaluated on a 80*80*162 grid
  Using the PBE Exchange-Correlation functional
 

XC parameters: PBE with 2 nearest neighbor stencil

Memory estimate:
  Process memory now: 493.14 MiB
  Calculator: 182.26 MiB
    Density: 8.53 MiB
      Arrays: 3.26 MiB
      Localized functions: 3.99 MiB
      Mixer: 1.28 MiB
    Hamiltonian: 2.24 MiB
      Arrays: 2.13 MiB
      XC: 0.00 MiB
      Poisson: 0.00 MiB
      vbar: 0.11 MiB
    Wavefunctions: 171.49 MiB
      Arrays psit_nG: 77.21 MiB
      Eigensolver: 88.51 MiB
      Projections: 0.25 MiB
      Projectors: 0.48 MiB
      PW-descriptor: 5.05 MiB

Total number of cores used: 64
Parallelization over k-points: 8
Domain decomposition: 1 x 2 x 4

Number of atoms: 29
Number of atomic orbitals: 332
Number of bands in calculation: 253
Bands to converge: occupied states only
Number of valence electrons: 415

... initialized

Initializing position-dependent things.

Density initialized from atomic densities
Creating initial wave functions:
  253 bands from LCAO basis set

                                           
                                           
                                           
                                           
                                           
                     O                     
                                           
                     C                     
                Rh     Rh     Rh           
                                           
            Rh   RRh    RRh    Rh          
       Rh    RRh   RRh    Rh               
                                           
        Rh     Rh   RRh    Rh    Rh        
                                           
                Rh    Rh     Rh            
           Rh    Rh     Rh                 
                                           
                                           
                                           
                                           

Positions:
   0 Rh     1.343501    0.775671    6.018424    ( 0.0000,  0.0000,  0.0000)
   1 Rh     4.030509    0.775678    6.018431    ( 0.0000,  0.0000,  0.0000)
   2 Rh     6.717516    0.775671    6.018424    ( 0.0000,  0.0000,  0.0000)
   3 Rh     2.687011    3.102684    6.018431    ( 0.0000,  0.0000,  0.0000)
   4 Rh     5.374006    3.102684    6.018431    ( 0.0000,  0.0000,  0.0000)
   5 Rh     8.061017    3.102681    6.018384    ( 0.0000,  0.0000,  0.0000)
   6 Rh     4.030509    5.429705    6.018424    ( 0.0000,  0.0000,  0.0000)
   7 Rh     6.717509    5.429705    6.018384    ( 0.0000,  0.0000,  0.0000)
   8 Rh     9.404526    5.429705    6.018384    ( 0.0000,  0.0000,  0.0000)
   9 Rh     0.000000    1.551291    8.194547    ( 0.0000,  0.0000,  0.0000)
  10 Rh     2.687011    1.551346    8.194545    ( 0.0000,  0.0000,  0.0000)
  11 Rh     5.374007    1.551346    8.194545    ( 0.0000,  0.0000,  0.0000)
  12 Rh     1.343544    3.878335    8.194517    ( 0.0000,  0.0000,  0.0000)
  13 Rh     4.030509    3.878353    8.194545    ( 0.0000,  0.0000,  0.0000)
  14 Rh     6.717473    3.878335    8.194517    ( 0.0000,  0.0000,  0.0000)
  15 Rh     2.687051    6.205400    8.194547    ( 0.0000,  0.0000,  0.0000)
  16 Rh     5.373966    6.205400    8.194547    ( 0.0000,  0.0000,  0.0000)
  17 Rh     8.061017    6.205421    8.194517    ( 0.0000,  0.0000,  0.0000)
  18 Rh     0.000000    0.000000   10.371277    ( 0.0000,  0.0000,  0.0000)
  19 Rh     2.687012    0.000004   10.371325    ( 0.0000,  0.0000,  0.0000)
  20 Rh     5.374005    0.000004   10.371325    ( 0.0000,  0.0000,  0.0000)
  21 Rh     1.343510    2.327019   10.371325    ( 0.0000,  0.0000,  0.0000)
  22 Rh     4.030509    2.327015   10.371315    ( 0.0000,  0.0000,  0.0000)
  23 Rh     6.717507    2.327019   10.371325    ( 0.0000,  0.0000,  0.0000)
  24 Rh     2.687006    4.654023   10.371325    ( 0.0000,  0.0000,  0.0000)
  25 Rh     5.374011    4.654023   10.371325    ( 0.0000,  0.0000,  0.0000)
  26 Rh     8.061017    4.654031   10.371365    ( 0.0000,  0.0000,  0.0000)
  27 C      4.665088    3.483787   12.394529    ( 0.0000,  0.0000,  0.0000)
  28 O      4.665088    3.483787   13.494529    ( 0.0000,  0.0000,  0.0000)

Unit cell:
           periodic     x           y           z      points  spacing
  1. axis:    yes    8.061017    0.000000    0.000000    40     0.1745
  2. axis:    yes    4.030509    6.981046    0.000000    40     0.1745
  3. axis:    no     0.000000    0.000000   16.387862    81     0.2023

  Lengths:   8.061017   8.061017  16.387862
  Angles:   90.000000  90.000000  60.000000

Effective grid spacing dv^(1/3) = 0.1923

                     log10-error:    total        iterations:
           time      wfs    density  energy       fermi  poisson
iter:   1  11:00:16  +0.32   +inf  -211.986546    3             
iter:   2  11:00:20  -1.27  -1.35  -209.587605    4             
iter:   3  11:00:24  -1.48  -1.37  -209.677528    4             
iter:   4  11:00:29  -1.09  -1.39  -200.705387    36            
iter:   5  11:00:33  -2.39  -1.74  -198.491279    3             
iter:   6  11:00:38  -2.44  -1.95  -198.408739    3             
iter:   7  11:00:42  -2.62  -2.09  -198.229302    3             
iter:   8  11:00:47  -3.06  -2.21  -198.201967    4             
iter:   9  11:00:51  -3.18  -2.26  -198.120673    3             
iter:  10  11:00:55  -3.33  -2.39  -198.118292    3             
iter:  11  11:01:00  -3.15  -2.43  -198.051300    3             
iter:  12  11:01:04  -4.00  -2.90  -198.050372    2             
iter:  13  11:01:09  -4.29  -2.98  -198.048860    2             
iter:  14  11:01:13  -4.81  -3.07  -198.048910    2             
iter:  15  11:01:18  -4.55  -3.13  -198.048277    2             
iter:  16  11:01:22  -5.18  -3.34  -198.048176    2             
iter:  17  11:01:26  -5.36  -3.45  -198.049505    2             
iter:  18  11:01:31  -5.13  -3.32  -198.047993    3             
iter:  19  11:01:35  -5.87  -3.66  -198.048133    2             
iter:  20  11:01:40  -5.66  -3.69  -198.048182    2             
iter:  21  11:01:44  -5.96  -4.02  -198.048297    2             
iter:  22  11:01:49  -6.55  -4.15  -198.048274    2             
iter:  23  11:01:53  -6.92  -4.25  -198.048285    2             
iter:  24  11:01:58  -7.13  -4.37  -198.048297    2             
iter:  25  11:02:02  -7.27  -4.41  -198.048318    2             
iter:  26  11:02:07  -7.45  -4.44  -198.048292    2             

Converged after 26 iterations.

Dipole moment: (-0.325926, -0.125577, 0.034811) |e|*Ang

Energy contributions relative to reference atoms: (reference = -3516703.949422)

Kinetic:       -100.917634
Potential:      +30.459803
External:        +0.000000
XC:            -124.605489
Entropy (-ST):   -1.598470
Local:           -2.185737
--------------------------
Free energy:   -198.847527
Extrapolated:  -198.048292

Fermi level: 2.00030

Showing only first 2 kpts
 Kpt  Band  Eigenvalues  Occupancy
  0   205      1.89543    0.18513
  0   206      1.92997    0.16723
  0   207      2.02002    0.11271
  0   208      2.08610    0.07444

  1   205      1.91039    0.17769
  1   206      1.99390    0.12900
  1   207      2.00715    0.12072
  1   208      2.02587    0.10911


No gap

Forces in eV/Ang:
  0 Rh   -0.06408    0.04433   -0.13659
  1 Rh   -0.01906    0.02771    0.00173
  2 Rh    0.08488    0.00004   -0.08210
  3 Rh    0.00009   -0.00343   -0.02750
  4 Rh   -0.01645    0.01083    0.00926
  5 Rh    0.04073   -0.07240   -0.07760
  6 Rh    0.00425    0.00711   -0.03729
  7 Rh   -0.03458    0.00533    0.00324
  8 Rh    0.01799   -0.00958    0.00638
  9 Rh   -0.01658    0.00585    0.05995
 10 Rh    0.11869    0.00142    0.15652
 11 Rh   -0.04308   -0.01443   -0.07238
 12 Rh   -0.00254    0.02605    0.05939
 13 Rh    0.01314   -0.00909   -0.23251
 14 Rh   -0.00611    0.04563   -0.07570
 15 Rh   -0.02544   -0.01086    0.05686
 16 Rh    0.05201   -0.09427    0.13975
 17 Rh   -0.00849    0.00781    0.02344
 18 Rh   -0.02777    0.11231   -0.02903
 19 Rh    0.01326   -0.02421   -0.05486
 20 Rh    0.02174   -0.09501   -0.04416
 21 Rh   -0.12152   -0.02970   -0.03510
 22 Rh    0.09139    0.31543    1.20535
 23 Rh    0.29235   -0.15539   -0.05366
 24 Rh   -0.25057    0.14193   -0.02662
 25 Rh   -0.19219   -0.20899    1.12433
 26 Rh    0.08657    0.02444   -0.03099
 27 C    -0.01319   -0.07053   -8.88912
 28 O     0.00234    0.02314    7.19034

System changes: positions 

Initializing position-dependent things.

Density initialized from wave functions
                                           
                                           
                                           
                                           
                                           
                     O                     
                                           
                     C                     
                Rh     Rh     Rh           
                                           
            Rh   RRh    RRh    Rh          
       Rh    RRh   RRh    Rh               
                                           
        Rh     Rh   RRh    Rh    Rh        
                                           
                Rh    Rh     Rh            
           Rh    Rh     Rh                 
                                           
                                           
                                           
                                           

Positions:
   0 Rh     1.343213    0.775870    6.017810    ( 0.0000,  0.0000,  0.0000)
   1 Rh     4.030423    0.775803    6.018439    ( 0.0000,  0.0000,  0.0000)
   2 Rh     6.717898    0.775671    6.018055    ( 0.0000,  0.0000,  0.0000)
   3 Rh     2.687012    3.102668    6.018308    ( 0.0000,  0.0000,  0.0000)
   4 Rh     5.373932    3.102733    6.018473    ( 0.0000,  0.0000,  0.0000)
   5 Rh     8.061201    3.102355    6.018035    ( 0.0000,  0.0000,  0.0000)
   6 Rh     4.030528    5.429737    6.018256    ( 0.0000,  0.0000,  0.0000)
   7 Rh     6.717353    5.429729    6.018398    ( 0.0000,  0.0000,  0.0000)
   8 Rh     9.404607    5.429662    6.018412    ( 0.0000,  0.0000,  0.0000)
   9 Rh    -0.000075    1.551317    8.194817    ( 0.0000,  0.0000,  0.0000)
  10 Rh     2.687545    1.551353    8.195249    ( 0.0000,  0.0000,  0.0000)
  11 Rh     5.373813    1.551281    8.194219    ( 0.0000,  0.0000,  0.0000)
  12 Rh     1.343532    3.878452    8.194784    ( 0.0000,  0.0000,  0.0000)
  13 Rh     4.030568    3.878312    8.193499    ( 0.0000,  0.0000,  0.0000)
  14 Rh     6.717446    3.878540    8.194176    ( 0.0000,  0.0000,  0.0000)
  15 Rh     2.686937    6.205351    8.194803    ( 0.0000,  0.0000,  0.0000)
  16 Rh     5.374200    6.204976    8.195176    ( 0.0000,  0.0000,  0.0000)
  17 Rh     8.060979    6.205456    8.194622    ( 0.0000,  0.0000,  0.0000)
  18 Rh    -0.000125    0.000505   10.371146    ( 0.0000,  0.0000,  0.0000)
  19 Rh     2.687072   -0.000105   10.371078    ( 0.0000,  0.0000,  0.0000)
  20 Rh     5.374103   -0.000423   10.371126    ( 0.0000,  0.0000,  0.0000)
  21 Rh     1.342963    2.326885   10.371167    ( 0.0000,  0.0000,  0.0000)
  22 Rh     4.030920    2.328435   10.376738    ( 0.0000,  0.0000,  0.0000)
  23 Rh     6.718823    2.326320   10.371083    ( 0.0000,  0.0000,  0.0000)
  24 Rh     2.685879    4.654661   10.371205    ( 0.0000,  0.0000,  0.0000)
  25 Rh     5.373146    4.653082   10.376384    ( 0.0000,  0.0000,  0.0000)
  26 Rh     8.061407    4.654140   10.371226    ( 0.0000,  0.0000,  0.0000)
  27 C      4.665029    3.483470   12.354530    ( 0.0000,  0.0000,  0.0000)
  28 O      4.665099    3.483891   13.526884    ( 0.0000,  0.0000,  0.0000)

Unit cell:
           periodic     x           y           z      points  spacing
  1. axis:    yes    8.061017    0.000000    0.000000    40     0.1745
  2. axis:    yes    4.030509    6.981046    0.000000    40     0.1745
  3. axis:    no     0.000000    0.000000   16.387862    81     0.2023

  Lengths:   8.061017   8.061017  16.387862
  Angles:   90.000000  90.000000  60.000000

Effective grid spacing dv^(1/3) = 0.1923

                     log10-error:    total        iterations:
           time      wfs    density  energy       fermi  poisson
iter:   1  11:02:13  -2.05   +inf  -200.422925    32            
iter:   2  11:02:18  -2.15  -1.95  -203.840666    4             
iter:   3  11:02:22  -2.33  -1.66  -199.476261    3             
iter:   4  11:02:27  -3.02  -2.04  -198.478222    4             
iter:   5  11:02:31  -3.59  -2.55  -198.384425    3             
iter:   6  11:02:36  -4.14  -2.82  -198.367034    3             
iter:   7  11:02:40  -3.73  -2.84  -198.344447    3             
iter:   8  11:02:45  -4.13  -3.14  -198.342200    3             
iter:   9  11:02:49  -5.07  -3.21  -198.340751    3             
iter:  10  11:02:54  -4.94  -3.25  -198.342121    3             
iter:  11  11:02:58  -4.96  -3.15  -198.337851    3             
iter:  12  11:03:03  -5.69  -3.50  -198.337297    3             
iter:  13  11:03:07  -6.33  -3.72  -198.337147    2             
iter:  14  11:03:12  -5.99  -3.86  -198.337136    2             
iter:  15  11:03:16  -6.83  -4.12  -198.337130    2             
iter:  16  11:03:21  -6.93  -4.17  -198.337152    2             
iter:  17  11:03:25  -7.42  -4.32  -198.337172    2             

Converged after 17 iterations.

Dipole moment: (-0.158195, -0.124287, -0.145876) |e|*Ang

Energy contributions relative to reference atoms: (reference = -3516703.949422)

Kinetic:       -112.118060
Potential:      +39.549614
External:        +0.000000
XC:            -122.696275
Entropy (-ST):   -1.595721
Local:           -2.274590
--------------------------
Free energy:   -199.135032
Extrapolated:  -198.337172

Fermi level: 1.93062

Showing only first 2 kpts
 Kpt  Band  Eigenvalues  Occupancy
  0   205      1.82261    0.18663
  0   206      1.86389    0.16522
  0   207      1.95501    0.10983
  0   208      2.01086    0.07738

  1   205      1.84236    0.17684
  1   206      1.92391    0.12919
  1   207      1.93839    0.12015
  1   208      1.95680    0.10873


No gap

Forces in eV/Ang:
  0 Rh   -0.07284    0.04907   -0.13417
  1 Rh   -0.02046    0.02881    0.01829
  2 Rh    0.08912   -0.00198   -0.06996
  3 Rh   -0.00353   -0.00871   -0.01172
  4 Rh   -0.01228    0.00796    0.02006
  5 Rh    0.04457   -0.07516   -0.06517
  6 Rh    0.00712    0.01296   -0.02147
  7 Rh   -0.03616    0.00565    0.01931
  8 Rh    0.01810   -0.00955    0.02349
  9 Rh   -0.00938    0.00177    0.06617
 10 Rh    0.10913   -0.00063    0.13864
 11 Rh   -0.05150   -0.00712   -0.06229
 12 Rh    0.00096    0.02330    0.05478
 13 Rh    0.01707   -0.01135   -0.20976
 14 Rh   -0.01664    0.04930   -0.06636
 15 Rh   -0.02110   -0.01242    0.05240
 16 Rh    0.04894   -0.08435    0.12227
 17 Rh   -0.01143    0.00967    0.01697
 18 Rh   -0.02315    0.10641   -0.03726
 19 Rh    0.01622   -0.02573   -0.05772
 20 Rh    0.01658   -0.08862   -0.05011
 21 Rh   -0.11386   -0.03138   -0.04316
 22 Rh    0.13618    0.37496    1.32394
 23 Rh    0.26353   -0.13904   -0.02815
 24 Rh   -0.22613    0.12746    0.00745
 25 Rh   -0.22287   -0.28157    1.24593
 26 Rh    0.07856    0.02650   -0.03700
 27 C    -0.00893   -0.06571   -0.94365
 28 O     0.00107    0.02101   -1.12605

System changes: positions 

Initializing position-dependent things.

Density initialized from wave functions
                                           
                                           
                                           
                                           
                                           
                     O                     
                                           
                     C                     
                Rh     Rh     Rh           
                                           
            Rh   RRh    RRh    Rh          
       Rh    RRh   RRh    Rh               
                                           
        Rh     Rh   RRh    Rh    Rh        
                                           
                Rh    Rh     Rh            
           Rh    Rh     Rh                 
                                           
                                           
                                           
                                           

Positions:
   0 Rh     1.342116    0.776609    6.015782    ( 0.0000,  0.0000,  0.0000)
   1 Rh     4.030114    0.776238    6.018709    ( 0.0000,  0.0000,  0.0000)
   2 Rh     6.719243    0.775642    6.016993    ( 0.0000,  0.0000,  0.0000)
   3 Rh     2.686960    3.102539    6.018125    ( 0.0000,  0.0000,  0.0000)
   4 Rh     5.373745    3.102854    6.018772    ( 0.0000,  0.0000,  0.0000)
   5 Rh     8.061872    3.101221    6.017046    ( 0.0000,  0.0000,  0.0000)
   6 Rh     4.030634    5.429930    6.017926    ( 0.0000,  0.0000,  0.0000)
   7 Rh     6.716808    5.429815    6.018684    ( 0.0000,  0.0000,  0.0000)
   8 Rh     9.404880    5.429518    6.018761    ( 0.0000,  0.0000,  0.0000)
   9 Rh    -0.000219    1.551346    8.195814    ( 0.0000,  0.0000,  0.0000)
  10 Rh     2.689197    1.551344    8.197350    ( 0.0000,  0.0000,  0.0000)
  11 Rh     5.373038    1.551171    8.193274    ( 0.0000,  0.0000,  0.0000)
  12 Rh     1.343546    3.878805    8.195613    ( 0.0000,  0.0000,  0.0000)
  13 Rh     4.030824    3.878142    8.190322    ( 0.0000,  0.0000,  0.0000)
  14 Rh     6.717199    3.879284    8.193170    ( 0.0000,  0.0000,  0.0000)
  15 Rh     2.686616    6.205164    8.195597    ( 0.0000,  0.0000,  0.0000)
  16 Rh     5.374941    6.203698    8.197030    ( 0.0000,  0.0000,  0.0000)
  17 Rh     8.060808    6.205602    8.194881    ( 0.0000,  0.0000,  0.0000)
  18 Rh    -0.000476    0.002115   10.370586    ( 0.0000,  0.0000,  0.0000)
  19 Rh     2.687316   -0.000493   10.370207    ( 0.0000,  0.0000,  0.0000)
  20 Rh     5.374355   -0.001764   10.370371    ( 0.0000,  0.0000,  0.0000)
  21 Rh     1.341240    2.326412   10.370518    ( 0.0000,  0.0000,  0.0000)
  22 Rh     4.032960    2.334075   10.396690    ( 0.0000,  0.0000,  0.0000)
  23 Rh     6.722815    2.324213   10.370648    ( 0.0000,  0.0000,  0.0000)
  24 Rh     2.682454    4.656592   10.371304    ( 0.0000,  0.0000,  0.0000)
  25 Rh     5.369792    4.648857   10.395156    ( 0.0000,  0.0000,  0.0000)
  26 Rh     8.062597    4.654540   10.370669    ( 0.0000,  0.0000,  0.0000)
  27 C      4.664892    3.482476   12.337216    ( 0.0000,  0.0000,  0.0000)
  28 O      4.665115    3.484210   13.513080    ( 0.0000,  0.0000,  0.0000)

Unit cell:
           periodic     x           y           z      points  spacing
  1. axis:    yes    8.061017    0.000000    0.000000    40     0.1745
  2. axis:    yes    4.030509    6.981046    0.000000    40     0.1745
  3. axis:    no     0.000000    0.000000   16.387862    81     0.2023

  Lengths:   8.061017   8.061017  16.387862
  Angles:   90.000000  90.000000  60.000000

Effective grid spacing dv^(1/3) = 0.1923

                     log10-error:    total        iterations:
           time      wfs    density  energy       fermi  poisson
iter:   1  11:03:32  -3.02   +inf  -198.508959    3             
iter:   2  11:03:36  -3.33  -2.58  -198.658130    3             
iter:   3  11:03:41  -3.79  -2.37  -198.446328    2             
iter:   4  11:03:45  -5.05  -2.84  -198.430450    3             
iter:   5  11:03:50  -4.77  -3.27  -198.428152    3             
iter:   6  11:03:54  -5.27  -3.47  -198.427803    3             
iter:   7  11:03:59  -5.94  -3.59  -198.427551    2             
iter:   8  11:04:03  -5.77  -3.68  -198.427200    3             
iter:   9  11:04:07  -5.93  -3.89  -198.427257    2             
iter:  10  11:04:12  -6.34  -3.84  -198.427183    2             
iter:  11  11:04:16  -6.73  -3.81  -198.427078    2             
iter:  12  11:04:21  -7.02  -4.15  -198.427076    2             
iter:  13  11:04:25  -7.38  -4.28  -198.427079    2             
iter:  14  11:04:30  -7.47  -4.40  -198.427092    2             

Converged after 14 iterations.

Dipole moment: (0.138509, -0.120559, -0.167616) |e|*Ang

Energy contributions relative to reference atoms: (reference = -3516703.949422)

Kinetic:       -113.735291
Potential:      +40.851163
External:        +0.000000
XC:            -122.543176
Entropy (-ST):   -1.596481
Local:           -2.201548
--------------------------
Free energy:   -199.225332
Extrapolated:  -198.427092

Fermi level: 1.91932

Showing only first 2 kpts
 Kpt  Band  Eigenvalues  Occupancy
  0   205      1.80895    0.18774
  0   206      1.85336    0.16480
  0   207      1.94657    0.10808
  0   208      1.99763    0.07842

  1   205      1.83356    0.17554
  1   206      1.91295    0.12898
  1   207      1.92931    0.11876
  1   208      1.94698    0.10783


No gap

Forces in eV/Ang:
  0 Rh   -0.06588    0.04389   -0.11041
  1 Rh   -0.01973    0.02334    0.01090
  2 Rh    0.07910   -0.00412   -0.06088
  3 Rh   -0.00789   -0.01492   -0.01250
  4 Rh   -0.00514    0.00347    0.00004
  5 Rh    0.04231   -0.06487   -0.05626
  6 Rh    0.01061    0.01942   -0.02136
  7 Rh   -0.03080    0.00821    0.01101
  8 Rh    0.01093   -0.00593    0.01844
  9 Rh    0.00351   -0.00426    0.05289
 10 Rh    0.11327    0.01622    0.14574
 11 Rh   -0.07143    0.02090   -0.01607
 12 Rh    0.00346    0.00595    0.04190
 13 Rh    0.03926   -0.02522   -0.11438
 14 Rh   -0.04949    0.05063   -0.02060
 15 Rh   -0.00501   -0.00659    0.03930
 16 Rh    0.03692   -0.09336    0.12731
 17 Rh   -0.01657    0.01253    0.01233
 18 Rh   -0.00664    0.07078   -0.03848
 19 Rh    0.02100   -0.02488   -0.05058
 20 Rh   -0.00233   -0.05021   -0.05032
 21 Rh   -0.07311   -0.02901   -0.04350
 22 Rh    0.11962    0.31288    1.21182
 23 Rh    0.22079   -0.11682   -0.04282
 24 Rh   -0.19899    0.11295   -0.00799
 25 Rh   -0.18106   -0.23613    1.13877
 26 Rh    0.03825    0.02487   -0.03871
 27 C    -0.00738   -0.06898   -0.86868
 28 O     0.00080    0.02176   -1.25353

System changes: positions 

Initializing position-dependent things.

Density initialized from wave functions
                                           
                                           
                                           
                                           
                                           
                     O                     
                                           
                     C                     
                Rh     Rh     Rh           
                                           
            Rh   RRh    RRh    Rh          
       Rh    RRh   RRh    Rh               
                                           
        Rh     Rh   RRh    Rh    Rh        
                                           
                Rh    Rh     Rh            
           Rh    Rh     Rh                 
                                           
                                           
                                           
                                           

Positions:
   0 Rh     1.340020    0.778010    6.012192    ( 0.0000,  0.0000,  0.0000)
   1 Rh     4.029492    0.776997    6.019072    ( 0.0000,  0.0000,  0.0000)
   2 Rh     6.721774    0.775525    6.015023    ( 0.0000,  0.0000,  0.0000)
   3 Rh     2.686737    3.102106    6.017720    ( 0.0000,  0.0000,  0.0000)
   4 Rh     5.373544    3.102988    6.018862    ( 0.0000,  0.0000,  0.0000)
   5 Rh     8.063209    3.099134    6.015221    ( 0.0000,  0.0000,  0.0000)
   6 Rh     4.030948    5.430502    6.017238    ( 0.0000,  0.0000,  0.0000)
   7 Rh     6.715815    5.430060    6.019055    ( 0.0000,  0.0000,  0.0000)
   8 Rh     9.405259    5.429314    6.019348    ( 0.0000,  0.0000,  0.0000)
   9 Rh    -0.000180    1.551246    8.197536    ( 0.0000,  0.0000,  0.0000)
  10 Rh     2.692745    1.551772    8.201913    ( 0.0000,  0.0000,  0.0000)
  11 Rh     5.370901    1.551681    8.192529    ( 0.0000,  0.0000,  0.0000)
  12 Rh     1.343638    3.879081    8.196998    ( 0.0000,  0.0000,  0.0000)
  13 Rh     4.031944    3.877420    8.186230    ( 0.0000,  0.0000,  0.0000)
  14 Rh     6.715817    3.880864    8.192286    ( 0.0000,  0.0000,  0.0000)
  15 Rh     2.686374    6.204930    8.196901    ( 0.0000,  0.0000,  0.0000)
  16 Rh     5.376164    6.200799    8.201023    ( 0.0000,  0.0000,  0.0000)
  17 Rh     8.060316    6.205979    8.195298    ( 0.0000,  0.0000,  0.0000)
  18 Rh    -0.000772    0.004522   10.369392    ( 0.0000,  0.0000,  0.0000)
  19 Rh     2.687949   -0.001277   10.368585    ( 0.0000,  0.0000,  0.0000)
  20 Rh     5.374381   -0.003540   10.368797    ( 0.0000,  0.0000,  0.0000)
  21 Rh     1.338732    2.325490   10.369161    ( 0.0000,  0.0000,  0.0000)
  22 Rh     4.036756    2.344157   10.435212    ( 0.0000,  0.0000,  0.0000)
  23 Rh     6.729995    2.320415   10.369350    ( 0.0000,  0.0000,  0.0000)
  24 Rh     2.676041    4.660228   10.371096    ( 0.0000,  0.0000,  0.0000)
  25 Rh     5.363925    4.641283   10.431355    ( 0.0000,  0.0000,  0.0000)
  26 Rh     8.064007    4.655328   10.369467    ( 0.0000,  0.0000,  0.0000)
  27 C      4.664648    3.480319   12.301553    ( 0.0000,  0.0000,  0.0000)
  28 O      4.665143    3.484892   13.482682    ( 0.0000,  0.0000,  0.0000)

Unit cell:
           periodic     x           y           z      points  spacing
  1. axis:    yes    8.061017    0.000000    0.000000    40     0.1745
  2. axis:    yes    4.030509    6.981046    0.000000    40     0.1745
  3. axis:    no     0.000000    0.000000   16.387862    81     0.2023

  Lengths:   8.061017   8.061017  16.387862
  Angles:   90.000000  90.000000  60.000000

Effective grid spacing dv^(1/3) = 0.1923

                     log10-error:    total        iterations:
           time      wfs    density  energy       fermi  poisson
iter:   1  11:04:37  -2.42   +inf  -199.182015    4             
iter:   2  11:04:41  -2.33  -2.12  -201.457296    4             
iter:   3  11:04:45  -2.82  -1.83  -198.643342    3             
iter:   4  11:04:50  -4.21  -2.67  -198.611140    2             
iter:   5  11:04:54  -3.96  -2.93  -198.598080    3             
iter:   6  11:04:59  -4.70  -3.15  -198.595911    3             
iter:   7  11:05:03  -5.38  -3.29  -198.595244    2             
iter:   8  11:05:08  -5.15  -3.36  -198.594510    3             
iter:   9  11:05:12  -5.15  -3.43  -198.597813    2             
iter:  10  11:05:17  -5.49  -3.19  -198.593664    3             
iter:  11  11:05:21  -6.05  -3.75  -198.593565    2             
iter:  12  11:05:26  -6.31  -3.84  -198.593533    2             
iter:  13  11:05:30  -6.69  -3.98  -198.593532    2             
iter:  14  11:05:34  -6.91  -4.11  -198.593558    2             
iter:  15  11:05:39  -6.76  -4.21  -198.593631    2             
iter:  16  11:05:43  -6.78  -3.96  -198.593615    2             
iter:  17  11:05:48  -7.37  -4.24  -198.593597    2             
iter:  18  11:05:52  -7.60  -4.49  -198.593580    2             

Converged after 18 iterations.

Dipole moment: (0.644165, -0.121067, -0.213475) |e|*Ang

Energy contributions relative to reference atoms: (reference = -3516703.949422)

Kinetic:       -115.827483
Potential:      +42.576365
External:        +0.000000
XC:            -122.356254
Entropy (-ST):   -1.597441
Local:           -2.187487
--------------------------
Free energy:   -199.392301
Extrapolated:  -198.593580

Fermi level: 1.89637

Showing only first 2 kpts
 Kpt  Band  Eigenvalues  Occupancy
  0   205      1.78214    0.18953
  0   206      1.83192    0.16394
  0   207      1.92788    0.10547
  0   208      1.97158    0.08009

  1   205      1.81671    0.17232
  1   206      1.89012    0.12890
  1   207      1.91053    0.11617
  1   208      1.92689    0.10607


No gap

Forces in eV/Ang:
  0 Rh   -0.06105    0.03896   -0.07641
  1 Rh   -0.01758    0.01802    0.01345
  2 Rh    0.06616   -0.00638   -0.03943
  3 Rh   -0.01094   -0.02243    0.00179
  4 Rh    0.00237   -0.00133   -0.01235
  5 Rh    0.03917   -0.05191   -0.03537
  6 Rh    0.01598    0.02513   -0.00541
  7 Rh   -0.02496    0.00933    0.01183
  8 Rh    0.00254   -0.00183    0.01961
  9 Rh    0.01984   -0.01155    0.04118
 10 Rh    0.10140    0.02726    0.12625
 11 Rh   -0.08018    0.04380    0.02038
 12 Rh    0.00161   -0.01060    0.02075
 13 Rh    0.05139   -0.03177   -0.00800
 14 Rh   -0.07313    0.04526    0.01738
 15 Rh    0.00842    0.00237    0.01783
 16 Rh    0.02274   -0.08514    0.10643
 17 Rh   -0.01665    0.01165   -0.00214
 18 Rh    0.01118    0.02981   -0.02732
 19 Rh    0.02965   -0.02742   -0.01128
 20 Rh   -0.02461   -0.01134   -0.03594
 21 Rh   -0.02678   -0.02475   -0.02924
 22 Rh    0.10694    0.24769    1.07202
 23 Rh    0.14630   -0.07729   -0.03323
 24 Rh   -0.14554    0.08307    0.00061
 25 Rh   -0.13528   -0.19345    1.00514
 26 Rh   -0.00487    0.02673   -0.02786
 27 C    -0.00728   -0.07032   -0.69215
 28 O     0.00025    0.02015   -1.40502

System changes: positions 

Initializing position-dependent things.

Density initialized from wave functions
                                           
                                           
                                           
                                           
                                           
                     O                     
                                           
                     C                     
                Rh     Rh     Rh           
                                           
            Rh   RRh    RRh    Rh          
       Rh    RRh   RRh    Rh               
                                           
        Rh     Rh   RRh    Rh    Rh        
                                           
                Rh    Rh     Rh            
           Rh    Rh     Rh                 
                                           
                                           
                                           
                                           

Positions:
   0 Rh     1.337876    0.779417    6.008885    ( 0.0000,  0.0000,  0.0000)
   1 Rh     4.028868    0.777725    6.019501    ( 0.0000,  0.0000,  0.0000)
   2 Rh     6.724260    0.775371    6.013254    ( 0.0000,  0.0000,  0.0000)
   3 Rh     2.686464    3.101548    6.017507    ( 0.0000,  0.0000,  0.0000)
   4 Rh     5.373433    3.103065    6.018800    ( 0.0000,  0.0000,  0.0000)
   5 Rh     8.064573    3.097115    6.013597    ( 0.0000,  0.0000,  0.0000)
   6 Rh     4.031352    5.431180    6.016751    ( 0.0000,  0.0000,  0.0000)
   7 Rh     6.714849    5.430330    6.019468    ( 0.0000,  0.0000,  0.0000)
   8 Rh     9.405543    5.429154    6.019989    ( 0.0000,  0.0000,  0.0000)
   9 Rh     0.000085    1.551042    8.199193    ( 0.0000,  0.0000,  0.0000)
  10 Rh     2.696299    1.552363    8.206416    ( 0.0000,  0.0000,  0.0000)
  11 Rh     5.368552    1.552518    8.192219    ( 0.0000,  0.0000,  0.0000)
  12 Rh     1.343704    3.879150    8.198160    ( 0.0000,  0.0000,  0.0000)
  13 Rh     4.033269    3.876584    8.183369    ( 0.0000,  0.0000,  0.0000)
  14 Rh     6.714061    3.882445    8.191853    ( 0.0000,  0.0000,  0.0000)
  15 Rh     2.686296    6.204809    8.197973    ( 0.0000,  0.0000,  0.0000)
  16 Rh     5.377258    6.197882    8.204909    ( 0.0000,  0.0000,  0.0000)
  17 Rh     8.059805    6.206359    8.195528    ( 0.0000,  0.0000,  0.0000)
  18 Rh    -0.000841    0.006498   10.368305    ( 0.0000,  0.0000,  0.0000)
  19 Rh     2.688738   -0.002143   10.367458    ( 0.0000,  0.0000,  0.0000)
  20 Rh     5.374104   -0.004886   10.367357    ( 0.0000,  0.0000,  0.0000)
  21 Rh     1.336724    2.324580   10.367948    ( 0.0000,  0.0000,  0.0000)
  22 Rh     4.040581    2.353878   10.473824    ( 0.0000,  0.0000,  0.0000)
  23 Rh     6.736506    2.316973   10.368146    ( 0.0000,  0.0000,  0.0000)
  24 Rh     2.670045    4.663633   10.371024    ( 0.0000,  0.0000,  0.0000)
  25 Rh     5.358376    4.633893   10.467605    ( 0.0000,  0.0000,  0.0000)
  26 Rh     8.064908    4.656187   10.368369    ( 0.0000,  0.0000,  0.0000)
  27 C      4.664390    3.478033   12.265141    ( 0.0000,  0.0000,  0.0000)
  28 O      4.665165    3.485585   13.450062    ( 0.0000,  0.0000,  0.0000)

Unit cell:
           periodic     x           y           z      points  spacing
  1. axis:    yes    8.061017    0.000000    0.000000    40     0.1745
  2. axis:    yes    4.030509    6.981046    0.000000    40     0.1745
  3. axis:    no     0.000000    0.000000   16.387862    81     0.2023

  Lengths:   8.061017   8.061017  16.387862
  Angles:   90.000000  90.000000  60.000000

Effective grid spacing dv^(1/3) = 0.1923

                     log10-error:    total        iterations:
           time      wfs    density  energy       fermi  poisson
iter:   1  11:05:59  -2.40   +inf  -199.461062    4             
iter:   2  11:06:04  -2.24  -2.08  -202.369255    4             
iter:   3  11:06:08  -2.73  -1.78  -198.801079    3             
iter:   4  11:06:13  -4.07  -2.66  -198.765551    3             
iter:   5  11:06:17  -3.86  -2.90  -198.748634    3             
iter:   6  11:06:22  -4.60  -3.15  -198.746255    3             
iter:   7  11:06:26  -5.33  -3.29  -198.745611    2             
iter:   8  11:06:31  -5.17  -3.36  -198.745159    3             
iter:   9  11:06:35  -5.18  -3.38  -198.747847    2             
iter:  10  11:06:40  -5.52  -3.19  -198.744095    3             
iter:  11  11:06:44  -5.97  -3.73  -198.743969    2             
iter:  12  11:06:49  -6.14  -3.84  -198.743924    3             
iter:  13  11:06:53  -6.73  -4.01  -198.743929    2             
iter:  14  11:06:58  -6.94  -4.10  -198.743946    2             
iter:  15  11:07:02  -6.66  -4.21  -198.744025    2             
iter:  16  11:07:06  -6.68  -3.97  -198.744005    2             
iter:  17  11:07:11  -7.36  -4.27  -198.743984    2             
iter:  18  11:07:15  -7.80  -4.53  -198.743972    2             

Converged after 18 iterations.

Dipole moment: (1.095660, -0.117188, -0.257615) |e|*Ang

Energy contributions relative to reference atoms: (reference = -3516703.949422)

Kinetic:       -117.116301
Potential:      +43.661584
External:        +0.000000
XC:            -122.310012
Entropy (-ST):   -1.598469
Local:           -2.180009
--------------------------
Free energy:   -199.543207
Extrapolated:  -198.743972

Fermi level: 1.87368

Showing only first 2 kpts
 Kpt  Band  Eigenvalues  Occupancy
  0   205      1.75661    0.19082
  0   206      1.81096    0.16296
  0   207      1.90788    0.10383
  0   208      1.94699    0.08113

  1   205      1.80067    0.16871
  1   206      1.86700    0.12917
  1   207      1.89182    0.11369
  1   208      1.90747    0.10408


No gap

Forces in eV/Ang:
  0 Rh   -0.05251    0.03203   -0.03693
  1 Rh   -0.01475    0.01184    0.01817
  2 Rh    0.04912   -0.00798   -0.01287
  3 Rh   -0.01286   -0.02821    0.01953
  4 Rh    0.01004   -0.00629   -0.02073
  5 Rh    0.03325   -0.03605   -0.00895
  6 Rh    0.02020    0.02906    0.01399
  7 Rh   -0.01791    0.01011    0.01525
  8 Rh   -0.00586    0.00251    0.02344
  9 Rh    0.03249   -0.01700    0.02087
 10 Rh    0.08360    0.03244    0.09325
 11 Rh   -0.08178    0.06049    0.04566
 12 Rh    0.00101   -0.02610   -0.00035
 13 Rh    0.05918   -0.03539    0.08333
 14 Rh   -0.08853    0.03748    0.04513
 15 Rh    0.02193    0.01028   -0.00363
 16 Rh    0.01068   -0.07022    0.07380
 17 Rh   -0.01781    0.01145   -0.01540
 18 Rh    0.02921   -0.01512   -0.01292
 19 Rh    0.03737   -0.02926    0.02935
 20 Rh   -0.04618    0.02939   -0.01818
 21 Rh    0.02377   -0.01904   -0.01206
 22 Rh    0.06243    0.12942    0.87475
 23 Rh    0.07168   -0.03826   -0.02363
 24 Rh   -0.09317    0.05385    0.00859
 25 Rh   -0.06395   -0.10450    0.82722
 26 Rh   -0.04943    0.02710   -0.01365
 27 C    -0.00549   -0.06103   -0.56281
 28 O     0.00111    0.01858   -1.49873

System changes: positions 

Initializing position-dependent things.

Density initialized from wave functions
                                           
                                           
                                           
                                           
                                           
                     O                     
                                           
                     C                     
                Rh     Rh     Rh           
                  Rh                       
            Rh   Rh     RRh    Rh          
       Rh    RRh   RRh    Rh               
                                           
        Rh     Rh   RRh    Rh    Rh        
                                           
                Rh    Rh     Rh            
           Rh    Rh     Rh                 
                                           
                                           
                                           
                                           

Positions:
   0 Rh     1.335677    0.780841    6.005896    ( 0.0000,  0.0000,  0.0000)
   1 Rh     4.028236    0.778425    6.020053    ( 0.0000,  0.0000,  0.0000)
   2 Rh     6.726698    0.775183    6.011748    ( 0.0000,  0.0000,  0.0000)
   3 Rh     2.686145    3.100860    6.017562    ( 0.0000,  0.0000,  0.0000)
   4 Rh     5.373424    3.103076    6.018629    ( 0.0000,  0.0000,  0.0000)
   5 Rh     8.065960    3.095165    6.012247    ( 0.0000,  0.0000,  0.0000)
   6 Rh     4.031853    5.431967    6.016534    ( 0.0000,  0.0000,  0.0000)
   7 Rh     6.713906    5.430632    6.019984    ( 0.0000,  0.0000,  0.0000)
   8 Rh     9.405727    5.429046    6.020752    ( 0.0000,  0.0000,  0.0000)
   9 Rh     0.000556    1.550742    8.200685    ( 0.0000,  0.0000,  0.0000)
  10 Rh     2.699859    1.553060    8.210759    ( 0.0000,  0.0000,  0.0000)
  11 Rh     5.366011    1.553648    8.192214    ( 0.0000,  0.0000,  0.0000)
  12 Rh     1.343760    3.879005    8.199101    ( 0.0000,  0.0000,  0.0000)
  13 Rh     4.034796    3.875642    8.181582    ( 0.0000,  0.0000,  0.0000)
  14 Rh     6.711961    3.884032    8.191756    ( 0.0000,  0.0000,  0.0000)
  15 Rh     2.686401    6.204796    8.198812    ( 0.0000,  0.0000,  0.0000)
  16 Rh     5.378269    6.194973    8.208591    ( 0.0000,  0.0000,  0.0000)
  17 Rh     8.059241    6.206762    8.195571    ( 0.0000,  0.0000,  0.0000)
  18 Rh    -0.000654    0.007976   10.367361    ( 0.0000,  0.0000,  0.0000)
  19 Rh     2.689710   -0.003112   10.366881    ( 0.0000,  0.0000,  0.0000)
  20 Rh     5.373487   -0.005753   10.366083    ( 0.0000,  0.0000,  0.0000)
  21 Rh     1.335291    2.323682   10.366912    ( 0.0000,  0.0000,  0.0000)
  22 Rh     4.044041    2.362621   10.512703    ( 0.0000,  0.0000,  0.0000)
  23 Rh     6.742436    2.313832   10.367018    ( 0.0000,  0.0000,  0.0000)
  24 Rh     2.664342    4.666878   10.371099    ( 0.0000,  0.0000,  0.0000)
  25 Rh     5.353437    4.627234   10.504223    ( 0.0000,  0.0000,  0.0000)
  26 Rh     8.065235    4.657128   10.367410    ( 0.0000,  0.0000,  0.0000)
  27 C      4.664135    3.475705   12.226755    ( 0.0000,  0.0000,  0.0000)
  28 O      4.665202    3.486310   13.414282    ( 0.0000,  0.0000,  0.0000)

Unit cell:
           periodic     x           y           z      points  spacing
  1. axis:    yes    8.061017    0.000000    0.000000    40     0.1745
  2. axis:    yes    4.030509    6.981046    0.000000    40     0.1745
  3. axis:    no     0.000000    0.000000   16.387862    81     0.2023

  Lengths:   8.061017   8.061017  16.387862
  Angles:   90.000000  90.000000  60.000000

Effective grid spacing dv^(1/3) = 0.1923

                     log10-error:    total        iterations:
           time      wfs    density  energy       fermi  poisson
iter:   1  11:07:22  -2.37   +inf  -199.675081    4             
iter:   2  11:07:27  -2.19  -2.05  -202.887041    4             
iter:   3  11:07:31  -2.69  -1.76  -198.942476    3             
iter:   4  11:07:36  -3.99  -2.64  -198.901028    3             
iter:   5  11:07:40  -3.78  -2.89  -198.880375    3             
iter:   6  11:07:45  -4.51  -3.15  -198.877850    3             
iter:   7  11:07:50  -5.27  -3.28  -198.877182    2             
iter:   8  11:07:54  -5.13  -3.35  -198.876919    3             
iter:   9  11:07:59  -5.19  -3.35  -198.879144    2             
iter:  10  11:08:03  -5.55  -3.20  -198.875685    3             
iter:  11  11:08:08  -5.93  -3.71  -198.875538    2             
iter:  12  11:08:12  -6.01  -3.84  -198.875487    3             
iter:  13  11:08:17  -6.71  -4.02  -198.875496    2             
iter:  14  11:08:21  -6.89  -4.10  -198.875503    2             
iter:  15  11:08:26  -6.55  -4.22  -198.875564    2             
iter:  16  11:08:30  -6.68  -4.03  -198.875561    2             
iter:  17  11:08:35  -7.50  -4.29  -198.875535    2             

Converged after 17 iterations.

Dipole moment: (1.494472, -0.106682, -0.299326) |e|*Ang

Energy contributions relative to reference atoms: (reference = -3516703.949422)

Kinetic:       -117.230160
Potential:      +43.779029
External:        +0.000000
XC:            -122.445478
Entropy (-ST):   -1.600176
Local:           -2.178837
--------------------------
Free energy:   -199.675623
Extrapolated:  -198.875535

Fermi level: 1.85139

Showing only first 2 kpts
 Kpt  Band  Eigenvalues  Occupancy
  0   205      1.73279    0.19151
  0   206      1.79082    0.16174
  0   207      1.88726    0.10282
  0   208      1.92404    0.08149

  1   205      1.78529    0.16487
  1   206      1.84390    0.12968
  1   207      1.87333    0.11134
  1   208      1.88870    0.10195


No gap

Forces in eV/Ang:
  0 Rh   -0.04151    0.02375   -0.00020
  1 Rh   -0.01123    0.00575    0.02042
  2 Rh    0.02946   -0.00873    0.01222
  3 Rh   -0.01255   -0.03131    0.03623
  4 Rh    0.01661   -0.01050   -0.02711
  5 Rh    0.02513   -0.01863    0.01635
  6 Rh    0.02311    0.02963    0.03234
  7 Rh   -0.01053    0.01006    0.01673
  8 Rh   -0.01304    0.00640    0.02568
  9 Rh    0.04117   -0.02053   -0.00067
 10 Rh    0.05757    0.03051    0.04904
 11 Rh   -0.07407    0.06807    0.05936
 12 Rh   -0.00001   -0.03811   -0.01809
 13 Rh    0.05963   -0.03426    0.15587
 14 Rh   -0.09219    0.02701    0.06223
 15 Rh    0.03261    0.01727   -0.02168
 16 Rh    0.00073   -0.04653    0.03207
 17 Rh   -0.01717    0.01006   -0.02588
 18 Rh    0.04325   -0.05540   -0.00052
 19 Rh    0.04284   -0.03044    0.06609
 20 Rh   -0.06243    0.06404   -0.00251
 21 Rh    0.06843   -0.01222    0.00299
 22 Rh   -0.01474   -0.04318    0.59315
 23 Rh    0.00235   -0.00252   -0.01500
 24 Rh   -0.04451    0.02659    0.01490
 25 Rh    0.03140    0.02747    0.58623
 26 Rh   -0.08654    0.02579   -0.00167
 27 C     0.00031   -0.03679   -0.39113
 28 O     0.00267    0.01816   -1.50620

System changes: positions 

Initializing position-dependent things.

Density initialized from wave functions
                                           
                                           
                                           
                                           
                                           
                     O                     
                                           
                     C                     
                Rh     Rh     Rh           
                  Rh                       
            Rh   Rh     RRh    Rh          
       Rh    RRh   RRh    Rh               
                                           
        Rh     Rh   RRh    Rh    Rh        
                                           
                Rh    Rh     Rh            
           Rh    Rh     Rh                 
                                           
                                           
                                           
                                           

Positions:
   0 Rh     1.333441    0.782266    6.003269    ( 0.0000,  0.0000,  0.0000)
   1 Rh     4.027603    0.779089    6.020722    ( 0.0000,  0.0000,  0.0000)
   2 Rh     6.729035    0.774961    6.010555    ( 0.0000,  0.0000,  0.0000)
   3 Rh     2.685800    3.100043    6.017950    ( 0.0000,  0.0000,  0.0000)
   4 Rh     5.373533    3.103012    6.018340    ( 0.0000,  0.0000,  0.0000)
   5 Rh     8.067346    3.093326    6.011229    ( 0.0000,  0.0000,  0.0000)
   6 Rh     4.032462    5.432846    6.016651    ( 0.0000,  0.0000,  0.0000)
   7 Rh     6.712997    5.430963    6.020597    ( 0.0000,  0.0000,  0.0000)
   8 Rh     9.405800    5.428996    6.021648    ( 0.0000,  0.0000,  0.0000)
   9 Rh     0.001235    1.550346    8.201947    ( 0.0000,  0.0000,  0.0000)
  10 Rh     2.703304    1.553786    8.214721    ( 0.0000,  0.0000,  0.0000)
  11 Rh     5.363362    1.555023    8.192433    ( 0.0000,  0.0000,  0.0000)
  12 Rh     1.343797    3.878630    8.199808    ( 0.0000,  0.0000,  0.0000)
  13 Rh     4.036474    3.874634    8.180916    ( 0.0000,  0.0000,  0.0000)
  14 Rh     6.709593    3.885587    8.191936    ( 0.0000,  0.0000,  0.0000)
  15 Rh     2.686705    6.204912    8.199400    ( 0.0000,  0.0000,  0.0000)
  16 Rh     5.379207    6.192211    8.211869    ( 0.0000,  0.0000,  0.0000)
  17 Rh     8.058637    6.207178    8.195414    ( 0.0000,  0.0000,  0.0000)
  18 Rh    -0.000192    0.008877   10.366565    ( 0.0000,  0.0000,  0.0000)
  19 Rh     2.690890   -0.004211   10.366959    ( 0.0000,  0.0000,  0.0000)
  20 Rh     5.372507   -0.006089   10.364984    ( 0.0000,  0.0000,  0.0000)
  21 Rh     1.334520    2.322814   10.366064    ( 0.0000,  0.0000,  0.0000)
  22 Rh     4.046482    2.369181   10.550597    ( 0.0000,  0.0000,  0.0000)
  23 Rh     6.747700    2.311027   10.365965    ( 0.0000,  0.0000,  0.0000)
  24 Rh     2.658950    4.669954   10.371333    ( 0.0000,  0.0000,  0.0000)
  25 Rh     5.349696    4.622245   10.540344    ( 0.0000,  0.0000,  0.0000)
  26 Rh     8.064924    4.658151   10.366590    ( 0.0000,  0.0000,  0.0000)
  27 C      4.663953    3.473570   12.186813    ( 0.0000,  0.0000,  0.0000)
  28 O      4.665272    3.487101   13.375278    ( 0.0000,  0.0000,  0.0000)

Unit cell:
           periodic     x           y           z      points  spacing
  1. axis:    yes    8.061017    0.000000    0.000000    40     0.1745
  2. axis:    yes    4.030509    6.981046    0.000000    40     0.1745
  3. axis:    no     0.000000    0.000000   16.387862    81     0.2023

  Lengths:   8.061017   8.061017  16.387862
  Angles:   90.000000  90.000000  60.000000

Effective grid spacing dv^(1/3) = 0.1923

                     log10-error:    total        iterations:
           time      wfs    density  energy       fermi  poisson
iter:   1  11:08:42  -2.35   +inf  -199.871943    4             
iter:   2  11:08:46  -2.14  -2.03  -203.590853    4             
iter:   3  11:08:51  -2.63  -1.73  -199.044141    3             
iter:   4  11:08:55  -3.90  -2.62  -198.997178    3             
iter:   5  11:08:59  -3.72  -2.88  -198.973084    3             
iter:   6  11:09:04  -4.43  -3.15  -198.970339    3             
iter:   7  11:09:08  -5.21  -3.28  -198.969645    3             
iter:   8  11:09:13  -5.09  -3.35  -198.969693    3             
iter:   9  11:09:17  -5.20  -3.32  -198.971197    3             
iter:  10  11:09:22  -5.61  -3.22  -198.968216    3             
iter:  11  11:09:26  -5.95  -3.69  -198.968064    2             
iter:  12  11:09:31  -5.91  -3.84  -198.968015    3             
iter:  13  11:09:35  -6.66  -4.04  -198.968026    2             
iter:  14  11:09:40  -6.80  -4.10  -198.968014    2             
iter:  15  11:09:44  -6.59  -4.25  -198.968031    2             
iter:  16  11:09:48  -6.93  -4.23  -198.968056    2             
iter:  17  11:09:53  -7.67  -4.33  -198.968027    2             

Converged after 17 iterations.

Dipole moment: (1.834702, -0.086219, -0.338424) |e|*Ang

Energy contributions relative to reference atoms: (reference = -3516703.949422)

Kinetic:       -116.453088
Potential:      +43.208260
External:        +0.000000
XC:            -122.738735
Entropy (-ST):   -1.603228
Local:           -2.182851
--------------------------
Free energy:   -199.769641
Extrapolated:  -198.968027

Fermi level: 1.83017

Showing only first 2 kpts
 Kpt  Band  Eigenvalues  Occupancy
  0   205      1.71180    0.19140
  0   206      1.77211    0.16030
  0   207      1.86743    0.10198
  0   208      1.90330    0.08122

  1   205      1.77096    0.16096
  1   206      1.82152    0.13040
  1   207      1.85552    0.10924
  1   208      1.87090    0.09988


No gap

Forces in eV/Ang:
  0 Rh   -0.02662    0.01352    0.03740
  1 Rh   -0.00646   -0.00126    0.02124
  2 Rh    0.00595   -0.00934    0.03721
  3 Rh   -0.01073   -0.03053    0.05329
  4 Rh    0.02191   -0.01374   -0.02961
  5 Rh    0.01495    0.00182    0.04161
  6 Rh    0.02335    0.02659    0.05107
  7 Rh   -0.00160    0.00914    0.01746
  8 Rh   -0.01866    0.00946    0.02651
  9 Rh    0.04497   -0.02165   -0.02395
 10 Rh    0.02694    0.02505    0.00114
 11 Rh   -0.06009    0.07120    0.06875
 12 Rh    0.00101   -0.04704   -0.03169
 13 Rh    0.05543   -0.03024    0.21782
 14 Rh   -0.08964    0.01404    0.07511
 15 Rh    0.04175    0.02146   -0.03539
 16 Rh   -0.00832   -0.01940   -0.01130
 17 Rh   -0.01525    0.00800   -0.03380
 18 Rh    0.05238   -0.09113    0.01985
 19 Rh    0.04476   -0.02995    0.10718
 20 Rh   -0.07244    0.09271    0.02133
 21 Rh    0.10639   -0.00369    0.02568
 22 Rh   -0.12735   -0.27531    0.20433
 23 Rh   -0.06077    0.02941   -0.00095
 24 Rh    0.00035    0.00119    0.02513
 25 Rh    0.15112    0.20286    0.26715
 26 Rh   -0.11568    0.02156    0.01885
 27 C     0.01370    0.00629   -0.15237
 28 O     0.00508    0.02005   -1.18714

System changes: positions 

Initializing position-dependent things.

Density initialized from wave functions
                                           
                                           
                                           
                                           
                                           
                     O                     
                                           
                     C                     
                Rh     Rh     Rh           
                  Rh                       
            Rh   Rh     RRh    Rh          
       Rh    RRh   RRh    Rh               
                                           
        Rh     Rh   RRh    Rh    Rh        
                                           
                Rh    Rh     Rh            
           Rh    Rh     Rh                 
                                           
                                           
                                           
                                           

Positions:
   0 Rh     1.331259    0.783622    6.001469    ( 0.0000,  0.0000,  0.0000)
   1 Rh     4.027006    0.779641    6.021572    ( 0.0000,  0.0000,  0.0000)
   2 Rh     6.731041    0.774673    6.010015    ( 0.0000,  0.0000,  0.0000)
   3 Rh     2.685427    3.099050    6.018989    ( 0.0000,  0.0000,  0.0000)
   4 Rh     5.373857    3.102814    6.017869    ( 0.0000,  0.0000,  0.0000)
   5 Rh     8.068664    3.091818    6.010898    ( 0.0000,  0.0000,  0.0000)
   6 Rh     4.033223    5.433833    6.017432    ( 0.0000,  0.0000,  0.0000)
   7 Rh     6.712214    5.431331    6.021367    ( 0.0000,  0.0000,  0.0000)
   8 Rh     9.405672    5.429052    6.022751    ( 0.0000,  0.0000,  0.0000)
   9 Rh     0.002246    1.549803    8.202691    ( 0.0000,  0.0000,  0.0000)
  10 Rh     2.706391    1.554536    8.217845    ( 0.0000,  0.0000,  0.0000)
  11 Rh     5.360610    1.556843    8.193130    ( 0.0000,  0.0000,  0.0000)
  12 Rh     1.343846    3.877838    8.200103    ( 0.0000,  0.0000,  0.0000)
  13 Rh     4.038383    3.873535    8.182488    ( 0.0000,  0.0000,  0.0000)
  14 Rh     6.706768    3.887008    8.192700    ( 0.0000,  0.0000,  0.0000)
  15 Rh     2.687395    6.205230    8.199550    ( 0.0000,  0.0000,  0.0000)
  16 Rh     5.379969    6.189811    8.214309    ( 0.0000,  0.0000,  0.0000)
  17 Rh     8.057981    6.207601    8.194905    ( 0.0000,  0.0000,  0.0000)
  18 Rh     0.000731    0.008659   10.366252    ( 0.0000,  0.0000,  0.0000)
  19 Rh     2.692391   -0.005506   10.368440    ( 0.0000,  0.0000,  0.0000)
  20 Rh     5.370923   -0.005426   10.364434    ( 0.0000,  0.0000,  0.0000)
  21 Rh     1.334994    2.322060   10.365776    ( 0.0000,  0.0000,  0.0000)
  22 Rh     4.046235    2.370181   10.583617    ( 0.0000,  0.0000,  0.0000)
  23 Rh     6.751590    2.308908   10.365190    ( 0.0000,  0.0000,  0.0000)
  24 Rh     2.654260    4.672639   10.371955    ( 0.0000,  0.0000,  0.0000)
  25 Rh     5.348863    4.621431   10.573153    ( 0.0000,  0.0000,  0.0000)
  26 Rh     8.063457    4.659254   10.366249    ( 0.0000,  0.0000,  0.0000)
  27 C      4.664076    3.472200   12.148300    ( 0.0000,  0.0000,  0.0000)
  28 O      4.665417    3.488050   13.335289    ( 0.0000,  0.0000,  0.0000)

Unit cell:
           periodic     x           y           z      points  spacing
  1. axis:    yes    8.061017    0.000000    0.000000    40     0.1745
  2. axis:    yes    4.030509    6.981046    0.000000    40     0.1745
  3. axis:    no     0.000000    0.000000   16.387862    81     0.2023

  Lengths:   8.061017   8.061017  16.387862
  Angles:   90.000000  90.000000  60.000000

Effective grid spacing dv^(1/3) = 0.1923

                     log10-error:    total        iterations:
           time      wfs    density  energy       fermi  poisson
iter:   1  11:10:00  -2.40   +inf  -199.744079    4             
iter:   2  11:10:04  -2.24  -2.07  -202.606611    4             
iter:   3  11:10:09  -2.73  -1.78  -199.076316    3             
iter:   4  11:10:13  -4.00  -2.64  -199.031207    2             
iter:   5  11:10:18  -3.76  -2.91  -199.009282    3             
iter:   6  11:10:22  -4.51  -3.23  -199.007428    3             
iter:   7  11:10:27  -5.24  -3.32  -199.006933    3             
iter:   8  11:10:31  -5.18  -3.40  -199.006886    3             
iter:   9  11:10:36  -5.39  -3.37  -199.007034    2             
iter:  10  11:10:40  -5.92  -3.37  -199.005786    2             
iter:  11  11:10:45  -6.14  -3.74  -199.005667    2             
iter:  12  11:10:49  -5.90  -3.87  -199.005617    3             
iter:  13  11:10:54  -6.70  -4.08  -199.005639    2             
iter:  14  11:10:58  -6.95  -4.13  -199.005618    2             
iter:  15  11:11:03  -6.80  -4.30  -199.005655    2             
iter:  16  11:11:07  -6.89  -4.26  -199.005685    2             
iter:  17  11:11:12  -7.73  -4.35  -199.005653    2             

Converged after 17 iterations.

Dipole moment: (2.060876, -0.048345, -0.366406) |e|*Ang

Energy contributions relative to reference atoms: (reference = -3516703.949422)

Kinetic:       -114.574200
Potential:      +41.730473
External:        +0.000000
XC:            -123.170050
Entropy (-ST):   -1.608071
Local:           -2.187840
--------------------------
Free energy:   -199.809688
Extrapolated:  -199.005653

Fermi level: 1.81434

Showing only first 2 kpts
 Kpt  Band  Eigenvalues  Occupancy
  0   205      1.69788    0.19054
  0   206      1.75889    0.15880
  0   207      1.85315    0.10104
  0   208      1.88908    0.08035

  1   205      1.76143    0.15732
  1   206      1.80461    0.13108
  1   207      1.84221    0.10770
  1   208      1.85794    0.09818


No gap

Forces in eV/Ang:
  0 Rh   -0.00843    0.00203    0.06613
  1 Rh   -0.00081   -0.00699    0.01686
  2 Rh   -0.01920   -0.00851    0.05583
  3 Rh   -0.00482   -0.02434    0.06499
  4 Rh    0.02231   -0.01365   -0.02822
  5 Rh    0.00256    0.02273    0.06027
  6 Rh    0.02093    0.01673    0.06437
  7 Rh    0.00661    0.00656    0.01389
  8 Rh   -0.02034    0.01057    0.02435
  9 Rh    0.04114   -0.01890   -0.03609
 10 Rh   -0.00910    0.01260   -0.04177
 11 Rh   -0.03665    0.06262    0.07090
 12 Rh    0.00086   -0.04634   -0.03294
 13 Rh    0.04197   -0.02052    0.25278
 14 Rh   -0.07319    0.00011    0.07976
 15 Rh    0.04188    0.02227   -0.03631
 16 Rh   -0.01364    0.01229   -0.04724
 17 Rh   -0.00922    0.00345   -0.03549
 18 Rh    0.04857   -0.10725    0.02955
 19 Rh    0.04002   -0.02696    0.12808
 20 Rh   -0.06669    0.10050    0.03373
 21 Rh    0.11899    0.00614    0.03674
 22 Rh   -0.23556   -0.49445   -0.25770
 23 Rh   -0.10381    0.05017    0.00644
 24 Rh    0.03432   -0.01851    0.02694
 25 Rh    0.25717    0.35925   -0.11030
 26 Rh   -0.12013    0.01312    0.02904
 27 C     0.03347    0.06141    0.06323
 28 O     0.00715    0.02444   -0.58439

System changes: positions 

Initializing position-dependent things.

Density initialized from wave functions
                                           
                                           
                                           
                                           
                                           
                     O                     
                                           
                     C                     
                Rh     Rh     Rh           
                  Rh                       
            Rh   Rh     RRh    Rh          
       Rh    RRh   RRh    Rh               
                                           
        Rh     Rh   RRh    Rh    Rh        
                                           
                Rh    Rh     Rh            
           Rh    Rh     Rh                 
                                           
                                           
                                           
                                           

Positions:
   0 Rh     1.330710    0.783926    6.001916    ( 0.0000,  0.0000,  0.0000)
   1 Rh     4.026883    0.779677    6.021990    ( 0.0000,  0.0000,  0.0000)
   2 Rh     6.731185    0.774515    6.010639    ( 0.0000,  0.0000,  0.0000)
   3 Rh     2.685328    3.098576    6.020099    ( 0.0000,  0.0000,  0.0000)
   4 Rh     5.374182    3.102617    6.017505    ( 0.0000,  0.0000,  0.0000)
   5 Rh     8.068949    3.091810    6.011626    ( 0.0000,  0.0000,  0.0000)
   6 Rh     4.033631    5.434193    6.018479    ( 0.0000,  0.0000,  0.0000)
   7 Rh     6.712133    5.431474    6.021738    ( 0.0000,  0.0000,  0.0000)
   8 Rh     9.405411    5.429187    6.023320    ( 0.0000,  0.0000,  0.0000)
   9 Rh     0.002915    1.549482    8.202400    ( 0.0000,  0.0000,  0.0000)
  10 Rh     2.706794    1.554729    8.217792    ( 0.0000,  0.0000,  0.0000)
  11 Rh     5.359726    1.557873    8.193967    ( 0.0000,  0.0000,  0.0000)
  12 Rh     1.343857    3.877156    8.199805    ( 0.0000,  0.0000,  0.0000)
  13 Rh     4.039180    3.873136    8.185733    ( 0.0000,  0.0000,  0.0000)
  14 Rh     6.705436    3.887260    8.193678    ( 0.0000,  0.0000,  0.0000)
  15 Rh     2.688008    6.205559    8.199179    ( 0.0000,  0.0000,  0.0000)
  16 Rh     5.380003    6.189608    8.214072    ( 0.0000,  0.0000,  0.0000)
  17 Rh     8.057766    6.207708    8.194357    ( 0.0000,  0.0000,  0.0000)
  18 Rh     0.001463    0.007343   10.366613    ( 0.0000,  0.0000,  0.0000)
  19 Rh     2.693193   -0.006130   10.370462    ( 0.0000,  0.0000,  0.0000)
  20 Rh     5.369833   -0.004145   10.364801    ( 0.0000,  0.0000,  0.0000)
  21 Rh     1.336479    2.322000   10.366236    ( 0.0000,  0.0000,  0.0000)
  22 Rh     4.042752    2.363399   10.586245    ( 0.0000,  0.0000,  0.0000)
  23 Rh     6.751170    2.309049   10.365197    ( 0.0000,  0.0000,  0.0000)
  24 Rh     2.653652    4.672996   10.372514    ( 0.0000,  0.0000,  0.0000)
  25 Rh     5.352239    4.626342   10.577960    ( 0.0000,  0.0000,  0.0000)
  26 Rh     8.061769    4.659639   10.366602    ( 0.0000,  0.0000,  0.0000)
  27 C      4.664607    3.472933   12.139465    ( 0.0000,  0.0000,  0.0000)
  28 O      4.665552    3.488590   13.323750    ( 0.0000,  0.0000,  0.0000)

Unit cell:
           periodic     x           y           z      points  spacing
  1. axis:    yes    8.061017    0.000000    0.000000    40     0.1745
  2. axis:    yes    4.030509    6.981046    0.000000    40     0.1745
  3. axis:    no     0.000000    0.000000   16.387862    81     0.2023

  Lengths:   8.061017   8.061017  16.387862
  Angles:   90.000000  90.000000  60.000000

Effective grid spacing dv^(1/3) = 0.1923

                     log10-error:    total        iterations:
           time      wfs    density  energy       fermi  poisson
iter:   1  11:11:19  -3.55   +inf  -199.063421    3             
iter:   2  11:11:23  -3.49  -2.68  -199.274549    3             
iter:   3  11:11:27  -3.91  -2.35  -199.020517    3             
iter:   4  11:11:32  -5.20  -3.24  -199.017914    3             
iter:   5  11:11:36  -5.12  -3.53  -199.017228    3             
iter:   6  11:11:41  -6.02  -3.80  -199.017182    2             
iter:   7  11:11:45  -6.73  -3.86  -199.017138    2             
iter:   8  11:11:50  -5.86  -3.92  -199.017060    2             
iter:   9  11:11:54  -6.62  -4.22  -199.017175    2             
iter:  10  11:11:59  -7.11  -4.05  -199.017087    2             
iter:  11  11:12:03  -7.25  -4.27  -199.017111    2             
iter:  12  11:12:08  -7.26  -4.43  -199.017106    2             
iter:  13  11:12:12  -7.44  -4.63  -199.017092    2             

Converged after 13 iterations.

Dipole moment: (2.011470, -0.014252, -0.364699) |e|*Ang

Energy contributions relative to reference atoms: (reference = -3516703.949422)

Kinetic:       -114.544615
Potential:      +41.754015
External:        +0.000000
XC:            -123.234497
Entropy (-ST):   -1.610194
Local:           -2.186898
--------------------------
Free energy:   -199.822189
Extrapolated:  -199.017092

Fermi level: 1.81490

Showing only first 2 kpts
 Kpt  Band  Eigenvalues  Occupancy
  0   205      1.69924    0.19018
  0   206      1.76015    0.15839
  0   207      1.85403    0.10085
  0   208      1.89083    0.07970

  1   205      1.76345    0.15646
  1   206      1.80498    0.13119
  1   207      1.84271    0.10773
  1   208      1.85854    0.09815


No gap

Forces in eV/Ang:
  0 Rh   -0.00085   -0.00149    0.07230
  1 Rh    0.00185   -0.00621    0.01965
  2 Rh   -0.02770   -0.00702    0.06303
  3 Rh    0.00156   -0.01484    0.07040
  4 Rh    0.01731   -0.01008   -0.01178
  5 Rh   -0.00292    0.02893    0.06683
  6 Rh    0.01557    0.00522    0.07015
  7 Rh    0.00737    0.00320    0.01747
  8 Rh   -0.01451    0.00772    0.02947
  9 Rh    0.03088   -0.01350   -0.02345
 10 Rh   -0.02117    0.00439   -0.04536
 11 Rh   -0.02288    0.05418    0.06714
 12 Rh    0.00061   -0.03380   -0.01905
 13 Rh    0.03369   -0.01363    0.24309
 14 Rh   -0.06147   -0.00496    0.07521
 15 Rh    0.03081    0.01664   -0.02182
 16 Rh   -0.01168    0.02064   -0.04610
 17 Rh   -0.00360   -0.00023   -0.03185
 18 Rh    0.03198   -0.09063    0.03377
 19 Rh    0.02840   -0.02218    0.12284
 20 Rh   -0.04244    0.08035    0.03818
 21 Rh    0.09331    0.01190    0.04048
 22 Rh   -0.18561   -0.40655   -0.30678
 23 Rh   -0.09680    0.04542    0.01183
 24 Rh    0.03851   -0.02164    0.02869
 25 Rh    0.21060    0.28223   -0.17049
 26 Rh   -0.09215    0.00109    0.03410
 27 C     0.03294    0.06012   -0.10621
 28 O     0.00380    0.02335   -0.25139

System changes: positions 

Initializing position-dependent things.

Density initialized from wave functions
                                           
                                           
                                           
                                           
                                           
                     O                     
                                           
                     C                     
                Rh     Rh     Rh           
                  Rh                       
            Rh   Rh     RRh    Rh          
       Rh    RRh   RRh    Rh               
                                           
        Rh     Rh   RRh    Rh    Rh        
                Rh                         
                      Rh     Rh            
           Rh    Rh     Rh                 
                                           
                                           
                                           
                                           

Positions:
   0 Rh     1.329800    0.784376    6.005204    ( 0.0000,  0.0000,  0.0000)
   1 Rh     4.026776    0.779561    6.023518    ( 0.0000,  0.0000,  0.0000)
   2 Rh     6.730371    0.774029    6.014027    ( 0.0000,  0.0000,  0.0000)
   3 Rh     2.685344    3.097412    6.024649    ( 0.0000,  0.0000,  0.0000)
   4 Rh     5.375241    3.101999    6.016851    ( 0.0000,  0.0000,  0.0000)
   5 Rh     8.069260    3.092862    6.015327    ( 0.0000,  0.0000,  0.0000)
   6 Rh     4.034791    5.434782    6.022910    ( 0.0000,  0.0000,  0.0000)
   7 Rh     6.712237    5.431765    6.023126    ( 0.0000,  0.0000,  0.0000)
   8 Rh     9.404573    5.429632    6.025468    ( 0.0000,  0.0000,  0.0000)
   9 Rh     0.004921    1.548574    8.201282    ( 0.0000,  0.0000,  0.0000)
  10 Rh     2.706450    1.554922    8.215823    ( 0.0000,  0.0000,  0.0000)
  11 Rh     5.357800    1.561200    8.197315    ( 0.0000,  0.0000,  0.0000)
  12 Rh     1.343875    3.875080    8.198885    ( 0.0000,  0.0000,  0.0000)
  13 Rh     4.041415    3.872201    8.199086    ( 0.0000,  0.0000,  0.0000)
  14 Rh     6.701435    3.887407    8.197564    ( 0.0000,  0.0000,  0.0000)
  15 Rh     2.689892    6.206603    8.198043    ( 0.0000,  0.0000,  0.0000)
  16 Rh     5.379768    6.190273    8.211856    ( 0.0000,  0.0000,  0.0000)
  17 Rh     8.057391    6.207805    8.192351    ( 0.0000,  0.0000,  0.0000)
  18 Rh     0.003515    0.002308   10.368550    ( 0.0000,  0.0000,  0.0000)
  19 Rh     2.695403   -0.007947   10.378296    ( 0.0000,  0.0000,  0.0000)
  20 Rh     5.366905    0.000371   10.366908    ( 0.0000,  0.0000,  0.0000)
  21 Rh     1.341741    2.322393   10.368573    ( 0.0000,  0.0000,  0.0000)
  22 Rh     4.030488    2.338080   10.579078    ( 0.0000,  0.0000,  0.0000)
  23 Rh     6.747350    2.310707   10.365873    ( 0.0000,  0.0000,  0.0000)
  24 Rh     2.653859    4.672889   10.374699    ( 0.0000,  0.0000,  0.0000)
  25 Rh     5.364992    4.644091   10.579503    ( 0.0000,  0.0000,  0.0000)
  26 Rh     8.056246    4.660197   10.368551    ( 0.0000,  0.0000,  0.0000)
  27 C      4.666734    3.476529   12.120168    ( 0.0000,  0.0000,  0.0000)
  28 O      4.665892    3.490348   13.299527    ( 0.0000,  0.0000,  0.0000)

Unit cell:
           periodic     x           y           z      points  spacing
  1. axis:    yes    8.061017    0.000000    0.000000    40     0.1745
  2. axis:    yes    4.030509    6.981046    0.000000    40     0.1745
  3. axis:    no     0.000000    0.000000   16.387862    81     0.2023

  Lengths:   8.061017   8.061017  16.387862
  Angles:   90.000000  90.000000  60.000000

Effective grid spacing dv^(1/3) = 0.1923

                     log10-error:    total        iterations:
           time      wfs    density  energy       fermi  poisson
iter:   1  11:12:19  -2.69   +inf  -199.211660    3             
iter:   2  11:12:24  -2.98  -2.42  -199.726095    3             
iter:   3  11:12:28  -3.37  -2.14  -199.076254    3             
iter:   4  11:12:33  -4.61  -2.72  -199.047924    3             
iter:   5  11:12:37  -4.59  -3.09  -199.043784    3             
iter:   6  11:12:42  -5.21  -3.29  -199.042934    3             
iter:   7  11:12:46  -5.76  -3.40  -199.042492    2             
iter:   8  11:12:51  -5.02  -3.47  -199.041975    3             
iter:   9  11:12:55  -5.68  -3.73  -199.041963    2             
iter:  10  11:13:00  -6.22  -3.73  -199.041960    2             
iter:  11  11:13:04  -6.46  -3.82  -199.041898    2             
iter:  12  11:13:09  -6.31  -4.00  -199.041879    2             
iter:  13  11:13:13  -6.82  -4.19  -199.041882    2             
iter:  14  11:13:18  -7.18  -4.27  -199.041856    2             
iter:  15  11:13:22  -7.10  -4.34  -199.041859    2             
iter:  16  11:13:27  -7.56  -4.51  -199.041852    2             

Converged after 16 iterations.

Dipole moment: (1.731622, 0.105696, -0.350731) |e|*Ang

Energy contributions relative to reference atoms: (reference = -3516703.949422)

Kinetic:       -114.157319
Potential:      +41.455022
External:        +0.000000
XC:            -123.347907
Entropy (-ST):   -1.615060
Local:           -2.184117
--------------------------
Free energy:   -199.849382
Extrapolated:  -199.041852

Fermi level: 1.82028

Showing only first 2 kpts
 Kpt  Band  Eigenvalues  Occupancy
  0   205      1.70631    0.18941
  0   206      1.76704    0.15751
  0   207      1.86012    0.10043
  0   208      1.89996    0.07768

  1   205      1.77135    0.15499
  1   206      1.81046    0.13114
  1   207      1.84663    0.10863
  1   208      1.86232    0.09911


No gap

Forces in eV/Ang:
  0 Rh    0.01258   -0.00616    0.04746
  1 Rh    0.00778    0.00081    0.00097
  2 Rh   -0.03945   -0.00147    0.04684
  3 Rh    0.01766    0.00717    0.05219
  4 Rh   -0.00012    0.00192    0.01369
  5 Rh   -0.01406    0.03509    0.04851
  6 Rh    0.00409   -0.02190    0.05246
  7 Rh    0.00379   -0.00717    0.00099
  8 Rh    0.00149   -0.00036    0.01568
  9 Rh   -0.00034    0.00206    0.03213
 10 Rh   -0.04297   -0.02084   -0.02079
 11 Rh    0.00383    0.00902    0.05414
 12 Rh   -0.00345    0.00346    0.03611
 13 Rh    0.00151    0.00539    0.17053
 14 Rh   -0.01206   -0.00116    0.05580
 15 Rh   -0.00480    0.00243    0.03439
 16 Rh    0.00089    0.03597   -0.01164
 17 Rh    0.00600   -0.00545    0.00247
 18 Rh   -0.01036   -0.03063    0.02162
 19 Rh   -0.00145   -0.00905    0.05830
 20 Rh    0.01685    0.00911    0.02460
 21 Rh    0.01241    0.01700    0.02202
 22 Rh    0.00067   -0.07580   -0.24061
 23 Rh   -0.03880    0.01187    0.01831
 24 Rh    0.01443   -0.01089    0.03091
 25 Rh    0.04600    0.01253   -0.17228
 26 Rh   -0.00541   -0.02080    0.02657
 27 C     0.02842    0.04351   -0.51828
 28 O    -0.00443    0.02177    0.25097

System changes: positions 

Initializing position-dependent things.

Density initialized from wave functions
                                           
                                           
                                           
                                           
                                           
                     O                     
                                           
                     C                     
                Rh     Rh     Rh           
                  Rh                       
            Rh   Rh     RRh    Rh          
       Rh    RRh   RRh    Rh               
                                           
        Rh     Rh   RRh    Rh    Rh        
                Rh                         
                      Rh     Rh            
           Rh    Rh     Rh                 
                                           
                                           
                                           
                                           

Positions:
   0 Rh     1.329531    0.784520    6.007590    ( 0.0000,  0.0000,  0.0000)
   1 Rh     4.026859    0.779546    6.024274    ( 0.0000,  0.0000,  0.0000)
   2 Rh     6.729281    0.773762    6.016512    ( 0.0000,  0.0000,  0.0000)
   3 Rh     2.685688    3.096961    6.027860    ( 0.0000,  0.0000,  0.0000)
   4 Rh     5.375749    3.101738    6.016787    ( 0.0000,  0.0000,  0.0000)
   5 Rh     8.069175    3.093994    6.018002    ( 0.0000,  0.0000,  0.0000)
   6 Rh     4.035454    5.434667    6.026061    ( 0.0000,  0.0000,  0.0000)
   7 Rh     6.712331    5.431770    6.023813    ( 0.0000,  0.0000,  0.0000)
   8 Rh     9.404198    5.429839    6.026808    ( 0.0000,  0.0000,  0.0000)
   9 Rh     0.005894    1.548168    8.201417    ( 0.0000,  0.0000,  0.0000)
  10 Rh     2.705502    1.554588    8.214527    ( 0.0000,  0.0000,  0.0000)
  11 Rh     5.356899    1.562948    8.199926    ( 0.0000,  0.0000,  0.0000)
  12 Rh     1.343810    3.874143    8.199179    ( 0.0000,  0.0000,  0.0000)
  13 Rh     4.042514    3.871853    8.208719    ( 0.0000,  0.0000,  0.0000)
  14 Rh     6.699280    3.887509    8.200468    ( 0.0000,  0.0000,  0.0000)
  15 Rh     2.690706    6.207161    8.198195    ( 0.0000,  0.0000,  0.0000)
  16 Rh     5.379715    6.191273    8.210603    ( 0.0000,  0.0000,  0.0000)
  17 Rh     8.057309    6.207759    8.191451    ( 0.0000,  0.0000,  0.0000)
  18 Rh     0.004324   -0.000684   10.369870    ( 0.0000,  0.0000,  0.0000)
  19 Rh     2.696486   -0.009040   10.383200    ( 0.0000,  0.0000,  0.0000)
  20 Rh     5.365774    0.002691   10.368362    ( 0.0000,  0.0000,  0.0000)
  21 Rh     1.344501    2.322877   10.370088    ( 0.0000,  0.0000,  0.0000)
  22 Rh     4.024522    2.324331   10.571922    ( 0.0000,  0.0000,  0.0000)
  23 Rh     6.744908    2.311655   10.366574    ( 0.0000,  0.0000,  0.0000)
  24 Rh     2.654066    4.672721   10.376425    ( 0.0000,  0.0000,  0.0000)
  25 Rh     5.372053    4.652944   10.577919    ( 0.0000,  0.0000,  0.0000)
  26 Rh     8.053478    4.660117   10.369979    ( 0.0000,  0.0000,  0.0000)
  27 C      4.668335    3.479130   12.105156    ( 0.0000,  0.0000,  0.0000)
  28 O      4.665981    3.491650   13.286269    ( 0.0000,  0.0000,  0.0000)

Unit cell:
           periodic     x           y           z      points  spacing
  1. axis:    yes    8.061017    0.000000    0.000000    40     0.1745
  2. axis:    yes    4.030509    6.981046    0.000000    40     0.1745
  3. axis:    no     0.000000    0.000000   16.387862    81     0.2023

  Lengths:   8.061017   8.061017  16.387862
  Angles:   90.000000  90.000000  60.000000

Effective grid spacing dv^(1/3) = 0.1923

                     log10-error:    total        iterations:
           time      wfs    density  energy       fermi  poisson
iter:   1  11:13:34  -3.14   +inf  -199.073380    3             
iter:   2  11:13:38  -3.84  -2.82  -199.102192    2             
iter:   3  11:13:43  -4.23  -2.69  -199.063021    3             
iter:   4  11:13:47  -5.16  -2.90  -199.049937    2             
iter:   5  11:13:52  -5.44  -3.38  -199.049407    2             
iter:   6  11:13:56  -5.41  -3.52  -199.049110    2             
iter:   7  11:14:01  -6.12  -3.75  -199.048991    2             
iter:   8  11:14:05  -6.29  -3.84  -199.049003    2             
iter:   9  11:14:10  -6.39  -3.99  -199.048944    2             
iter:  10  11:14:14  -6.74  -4.13  -199.049070    2             
iter:  11  11:14:19  -7.12  -4.02  -199.048993    2             
iter:  12  11:14:23  -7.11  -4.28  -199.048999    2             
iter:  13  11:14:28  -7.28  -4.47  -199.049011    2             
iter:  14  11:14:32  -7.84  -4.60  -199.049003    2             

Converged after 14 iterations.

Dipole moment: (1.606158, 0.195515, -0.350596) |e|*Ang

Energy contributions relative to reference atoms: (reference = -3516703.949422)

Kinetic:       -114.012037
Potential:      +41.344672
External:        +0.000000
XC:            -123.379694
Entropy (-ST):   -1.617078
Local:           -2.193406
--------------------------
Free energy:   -199.857542
Extrapolated:  -199.049003

Fermi level: 1.82068

Showing only first 2 kpts
 Kpt  Band  Eigenvalues  Occupancy
  0   205      1.70721    0.18918
  0   206      1.76819    0.15708
  0   207      1.86119    0.10002
  0   208      1.90233    0.07663

  1   205      1.77268    0.15444
  1   206      1.81138    0.13081
  1   207      1.84577    0.10940
  1   208      1.86136    0.09992


No gap

Forces in eV/Ang:
  0 Rh    0.01545   -0.00616    0.02989
  1 Rh    0.01161    0.00662   -0.00100
  2 Rh   -0.04154    0.00223    0.04181
  3 Rh    0.02826    0.02426    0.04568
  4 Rh   -0.01243    0.01010    0.04021
  5 Rh   -0.01920    0.03439    0.04219
  6 Rh   -0.00591   -0.03971    0.04647
  7 Rh    0.00052   -0.01405    0.00004
[...]
iter:   4  10:57:36  -5.80  -3.49  -178.673627    2             
iter:   5  10:57:41  -5.87  -3.83  -178.673358    2             
iter:   6  10:57:46  -6.37  -4.00  -178.673409    2             
iter:   7  10:57:52  -7.08  -4.15  -178.673389    2             
iter:   8  10:57:57  -7.01  -4.22  -178.673346    2             
iter:   9  10:58:02  -7.19  -4.41  -178.673402    2             
iter:  10  10:58:07  -7.60  -4.49  -178.673329    2             

Converged after 10 iterations.

Dipole moment: (3.663229, 0.069885, -0.209971) |e|*Ang

Energy contributions relative to reference atoms: (reference = -13513203.275138)

Kinetic:       -281.921815
Potential:     +210.652743
External:        +0.000000
XC:             -92.029176
Entropy (-ST):   -1.545203
Local:          -14.602480
--------------------------
Free energy:   -179.445930
Extrapolated:  -178.673329

Fermi level: 1.63969

Showing only first 2 kpts
 Kpt  Band  Eigenvalues  Occupancy
  0   219      1.64527    0.12151
  0   220      1.77683    0.05060
  0   221      1.81957    0.03550
  0   222      1.85615    0.02575

  1   219      1.54171    0.18177
  1   220      1.56737    0.16833
  1   221      1.57569    0.16369
  1   222      1.59206    0.15422


No gap

Forces in eV/Ang:
  0 Pt   -0.01864   -0.00152    0.01080
  1 Pt    0.01476   -0.01627   -0.02683
  2 Pt    0.00867   -0.01339    0.02233
  3 Pt   -0.01196    0.02555   -0.01699
  4 Pt    0.01018    0.00102   -0.05091
  5 Pt    0.00618   -0.00149    0.02202
  6 Pt   -0.01205    0.00160   -0.02391
  7 Pt   -0.01666   -0.02162   -0.03450
  8 Pt    0.01518   -0.02226    0.03793
  9 Pt    0.02371    0.00275    0.03296
 10 Pt    0.00926   -0.01497    0.03078
 11 Pt   -0.02873    0.00324   -0.00028
 12 Pt    0.00789   -0.00340    0.04539
 13 Pt   -0.01103    0.00119   -0.05138
 14 Pt   -0.00788    0.02954   -0.02508
 15 Pt    0.01755    0.01253    0.01633
 16 Pt    0.01822   -0.01357    0.00138
 17 Pt   -0.00089    0.05300    0.02529
 18 Pt    0.02826    0.00765    0.01700
 19 Pt   -0.04221   -0.06692   -0.05010
 20 Pt   -0.01352    0.00255    0.02117
 21 Pt    0.01187   -0.00454    0.01855
 22 Pt   -0.02235   -0.01001    0.00542
 23 Pt   -0.00827   -0.02120    0.00263
 24 Pt   -0.01302   -0.01482    0.02122
 25 Pt    0.02925    0.03193   -0.04459
 26 Pt   -0.02562    0.06281    0.02048
 27 C     0.03130    0.01081   -0.11578
 28 O     0.00431   -0.01877    0.07364

System changes: positions 

Initializing position-dependent things.

Density initialized from wave functions
                                            
                                            
                                            
                                            
                                            
                     O                      
                                            
                     C                      
                 Pt     Pt    Pt            
            Pt     Pt     Pt                
                  Pt     Pt    Pt           
       Pt    PPt    PPt    Pt               
                                            
        Pt     Pt    PPt    Pt    Pt        
                       Pt                   
                Pt            Pt            
           Pt     Pt     Pt                 
                                            
                                            
                                            
                                            

Positions:
   0 Pt     1.386505    0.802818    5.894426    ( 0.0000,  0.0000,  0.0000)
   1 Pt     4.154029    0.806912    5.987009    ( 0.0000,  0.0000,  0.0000)
   2 Pt     6.934270    0.800979    5.899512    ( 0.0000,  0.0000,  0.0000)
   3 Pt     2.772241    3.193116    5.958601    ( 0.0000,  0.0000,  0.0000)
   4 Pt     5.547639    3.201655    6.006864    ( 0.0000,  0.0000,  0.0000)
   5 Pt     8.320360    3.202871    5.900108    ( 0.0000,  0.0000,  0.0000)
   6 Pt     4.168128    5.611476    5.963608    ( 0.0000,  0.0000,  0.0000)
   7 Pt     6.927279    5.608010    5.991714    ( 0.0000,  0.0000,  0.0000)
   8 Pt     9.704462    5.604740    5.919374    ( 0.0000,  0.0000,  0.0000)
   9 Pt     0.004740    1.586515    8.222795    ( 0.0000,  0.0000,  0.0000)
  10 Pt     2.780584    1.594649    8.328742    ( 0.0000,  0.0000,  0.0000)
  11 Pt     5.539146    1.593061    8.312457    ( 0.0000,  0.0000,  0.0000)
  12 Pt     1.376092    3.989789    8.251820    ( 0.0000,  0.0000,  0.0000)
  13 Pt     4.157258    3.993788    8.323231    ( 0.0000,  0.0000,  0.0000)
  14 Pt     6.922437    3.990900    8.317573    ( 0.0000,  0.0000,  0.0000)
  15 Pt     2.765352    6.398957    8.255463    ( 0.0000,  0.0000,  0.0000)
  16 Pt     5.544218    6.383810    8.340789    ( 0.0000,  0.0000,  0.0000)
  17 Pt     8.314162    6.386952    8.295273    ( 0.0000,  0.0000,  0.0000)
  18 Pt    -0.009946   -0.002634   10.604738    ( 0.0000,  0.0000,  0.0000)
  19 Pt     2.767427   -0.002658   10.663500    ( 0.0000,  0.0000,  0.0000)
  20 Pt     5.529863   -0.009230   10.621385    ( 0.0000,  0.0000,  0.0000)
  21 Pt     1.372377    2.389801   10.601405    ( 0.0000,  0.0000,  0.0000)
  22 Pt     4.140238    2.395379   10.813529    ( 0.0000,  0.0000,  0.0000)
  23 Pt     6.962069    2.367919   10.597253    ( 0.0000,  0.0000,  0.0000)
  24 Pt     2.718712    4.821061   10.589762    ( 0.0000,  0.0000,  0.0000)
  25 Pt     5.522796    4.798716   10.820826    ( 0.0000,  0.0000,  0.0000)
  26 Pt     8.304898    4.789527   10.621736    ( 0.0000,  0.0000,  0.0000)
  27 C      4.810257    3.603559   12.284293    ( 0.0000,  0.0000,  0.0000)
  28 O      4.785943    3.618844   13.461918    ( 0.0000,  0.0000,  0.0000)

Unit cell:
           periodic     x           y           z      points  spacing
  1. axis:    yes    8.315576    0.000000    0.000000    42     0.1715
  2. axis:    yes    4.157788    7.201500    0.000000    42     0.1715
  3. axis:    no     0.000000    0.000000   16.526426    81     0.2040

  Lengths:   8.315576   8.315576  16.526426
  Angles:   90.000000  90.000000  60.000000

Effective grid spacing dv^(1/3) = 0.1906

                     log10-error:    total        iterations:
           time      wfs    density  energy       fermi  poisson
iter:   1  10:58:15  -4.00   +inf  -178.676876    3             
iter:   2  10:58:21  -4.88  -3.35  -178.676949    3             
iter:   3  10:58:26  -5.45  -3.34  -178.675324    2             
iter:   4  10:58:31  -6.14  -3.69  -178.674834    2             
iter:   5  10:58:36  -6.25  -3.86  -178.674702    2             
iter:   6  10:58:42  -6.35  -4.01  -178.674715    2             
iter:   7  10:58:47  -7.14  -4.25  -178.674680    2             
iter:   8  10:58:52  -7.32  -4.33  -178.674648    2             
iter:   9  10:58:57  -7.60  -4.47  -178.674614    2             

Converged after 9 iterations.

Dipole moment: (3.729353, 0.162790, -0.209984) |e|*Ang

Energy contributions relative to reference atoms: (reference = -13513203.275138)

Kinetic:       -281.996213
Potential:     +210.714162
External:        +0.000000
XC:             -92.017854
Entropy (-ST):   -1.546243
Local:          -14.601588
--------------------------
Free energy:   -179.447736
Extrapolated:  -178.674614

Fermi level: 1.63947

Showing only first 2 kpts
 Kpt  Band  Eigenvalues  Occupancy
  0   219      1.64478    0.12168
  0   220      1.77727    0.05033
  0   221      1.81896    0.03562
  0   222      1.85531    0.02589

  1   219      1.54171    0.18166
  1   220      1.56720    0.16830
  1   221      1.57500    0.16395
  1   222      1.59161    0.15436


No gap

Forces in eV/Ang:
  0 Pt   -0.01330   -0.00006    0.00468
  1 Pt    0.00623   -0.00928   -0.01750
  2 Pt    0.01184   -0.00819    0.01762
  3 Pt   -0.00805    0.01315   -0.02009
  4 Pt    0.00183   -0.00097   -0.04639
  5 Pt    0.00879   -0.00675    0.01777
  6 Pt   -0.00602    0.00225   -0.02457
  7 Pt   -0.01183   -0.01220   -0.02283
  8 Pt    0.00917   -0.01959    0.03517
  9 Pt    0.01891    0.00299    0.02283
 10 Pt    0.00690   -0.00713    0.03049
 11 Pt   -0.02462    0.01270    0.00974
 12 Pt   -0.00005   -0.00308    0.03411
 13 Pt   -0.00421   -0.01007   -0.01186
 14 Pt   -0.00605    0.01987   -0.01032
 15 Pt    0.01667    0.01645    0.01295
 16 Pt    0.00813   -0.01162   -0.00337
 17 Pt    0.00296    0.04074    0.00652
 18 Pt    0.01513   -0.00319    0.01524
 19 Pt   -0.02755   -0.04108   -0.03202
 20 Pt   -0.01932    0.01503    0.01337
 21 Pt    0.01874   -0.00619    0.01166
 22 Pt   -0.02200   -0.01752   -0.01597
 23 Pt   -0.01979   -0.01704   -0.00650
 24 Pt    0.00314   -0.02358    0.00949
 25 Pt    0.02962    0.04252   -0.05065
 26 Pt   -0.02591    0.03888    0.01668
 27 C     0.02566    0.00927   -0.12230
 28 O     0.00594   -0.01805    0.09431

System changes: positions 

Initializing position-dependent things.

Density initialized from wave functions
                                            
                                            
                                            
                                            
                                            
                     O                      
                                            
                     C                      
                 Pt     Pt    Pt            
            Pt     Pt     Pt                
                  Pt     Pt    Pt           
       Pt    PPt    PPt    Pt               
                                            
        Pt     Pt    PPt    Pt    Pt        
                       Pt                   
                Pt            Pt            
           Pt     Pt     Pt                 
                                            
                                            
                                            
                                            

Positions:
   0 Pt     1.385603    0.802775    5.896124    ( 0.0000,  0.0000,  0.0000)
   1 Pt     4.154939    0.805934    5.984833    ( 0.0000,  0.0000,  0.0000)
   2 Pt     6.934292    0.800011    5.901609    ( 0.0000,  0.0000,  0.0000)
   3 Pt     2.771403    3.194491    5.957786    ( 0.0000,  0.0000,  0.0000)
   4 Pt     5.548527    3.201372    6.002901    ( 0.0000,  0.0000,  0.0000)
   5 Pt     8.320643    3.203095    5.902067    ( 0.0000,  0.0000,  0.0000)
   6 Pt     4.167288    5.611542    5.961692    ( 0.0000,  0.0000,  0.0000)
   7 Pt     6.926292    5.606594    5.988545    ( 0.0000,  0.0000,  0.0000)
   8 Pt     9.705308    5.603423    5.922256    ( 0.0000,  0.0000,  0.0000)
   9 Pt     0.005873    1.586883    8.226040    ( 0.0000,  0.0000,  0.0000)
  10 Pt     2.780918    1.594055    8.328808    ( 0.0000,  0.0000,  0.0000)
  11 Pt     5.538388    1.593254    8.311542    ( 0.0000,  0.0000,  0.0000)
  12 Pt     1.376844    3.989987    8.255963    ( 0.0000,  0.0000,  0.0000)
  13 Pt     4.156185    3.994653    8.318178    ( 0.0000,  0.0000,  0.0000)
  14 Pt     6.922285    3.992199    8.315330    ( 0.0000,  0.0000,  0.0000)
  15 Pt     2.766101    6.399292    8.257760    ( 0.0000,  0.0000,  0.0000)
  16 Pt     5.545365    6.383302    8.339712    ( 0.0000,  0.0000,  0.0000)
  17 Pt     8.314415    6.389452    8.296481    ( 0.0000,  0.0000,  0.0000)
  18 Pt    -0.007980   -0.001602   10.605515    ( 0.0000,  0.0000,  0.0000)
  19 Pt     2.764168   -0.007726   10.659894    ( 0.0000,  0.0000,  0.0000)
  20 Pt     5.530766   -0.009422   10.623057    ( 0.0000,  0.0000,  0.0000)
  21 Pt     1.371832    2.390817   10.602930    ( 0.0000,  0.0000,  0.0000)
  22 Pt     4.139732    2.396986   10.812273    ( 0.0000,  0.0000,  0.0000)
  23 Pt     6.961624    2.367858   10.597771    ( 0.0000,  0.0000,  0.0000)
  24 Pt     2.718511    4.820644   10.592243    ( 0.0000,  0.0000,  0.0000)
  25 Pt     5.522038    4.796629   10.816781    ( 0.0000,  0.0000,  0.0000)
  26 Pt     8.303590    4.793506   10.622634    ( 0.0000,  0.0000,  0.0000)
  27 C      4.812226    3.603854   12.282632    ( 0.0000,  0.0000,  0.0000)
  28 O      4.786374    3.617623   13.460508    ( 0.0000,  0.0000,  0.0000)

Unit cell:
           periodic     x           y           z      points  spacing
  1. axis:    yes    8.315576    0.000000    0.000000    42     0.1715
  2. axis:    yes    4.157788    7.201500    0.000000    42     0.1715
  3. axis:    no     0.000000    0.000000   16.526426    81     0.2040

  Lengths:   8.315576   8.315576  16.526426
  Angles:   90.000000  90.000000  60.000000

Effective grid spacing dv^(1/3) = 0.1906

                     log10-error:    total        iterations:
           time      wfs    density  energy       fermi  poisson
iter:   1  10:59:05  -3.70   +inf  -178.691673    3             
iter:   2  10:59:11  -4.14  -3.03  -178.701705    3             
iter:   3  10:59:16  -4.77  -2.89  -178.676453    3             
iter:   4  10:59:21  -5.90  -3.64  -178.676065    2             
iter:   5  10:59:26  -6.06  -3.75  -178.675865    2             
iter:   6  10:59:32  -6.11  -3.89  -178.675831    2             
iter:   7  10:59:37  -6.66  -4.12  -178.675796    2             
iter:   8  10:59:42  -7.23  -4.24  -178.675827    2             
iter:   9  10:59:47  -7.31  -4.29  -178.675787    2             
iter:  10  10:59:53  -7.62  -4.46  -178.675793    2             

Converged after 10 iterations.

Dipole moment: (3.805448, 0.345775, -0.210570) |e|*Ang

Energy contributions relative to reference atoms: (reference = -13513203.275138)

Kinetic:       -282.061130
Potential:     +210.769212
External:        +0.000000
XC:             -92.007600
Entropy (-ST):   -1.547534
Local:          -14.602509
--------------------------
Free energy:   -179.449560
Extrapolated:  -178.675793

Fermi level: 1.63915

Showing only first 2 kpts
 Kpt  Band  Eigenvalues  Occupancy
  0   219      1.64443    0.12170
  0   220      1.77786    0.04997
  0   221      1.81827    0.03573
  0   222      1.85414    0.02608

  1   219      1.54206    0.18132
  1   220      1.56703    0.16821
  1   221      1.57406    0.16430
  1   222      1.59053    0.15480


No gap

Forces in eV/Ang:
  0 Pt   -0.00101   -0.00026    0.00348
  1 Pt   -0.00560   -0.00463   -0.00790
  2 Pt    0.01030   -0.00185    0.01712
  3 Pt   -0.00335   -0.00857   -0.01573
  4 Pt   -0.00516   -0.00777   -0.03734
  5 Pt    0.00854   -0.01107    0.01854
  6 Pt    0.00278    0.00523   -0.02052
  7 Pt   -0.00046    0.00267   -0.01138
  8 Pt   -0.00507   -0.01120    0.03421
  9 Pt    0.00649    0.00743    0.01095
 10 Pt    0.00452    0.00773    0.02526
 11 Pt   -0.01076    0.02192    0.01270
 12 Pt   -0.00933   -0.00014    0.02255
 13 Pt    0.00056   -0.01481    0.00382
 14 Pt    0.00298    0.00507   -0.00039
 15 Pt    0.01644    0.01716    0.01573
 16 Pt   -0.00834   -0.01145   -0.02014
 17 Pt    0.00909    0.01891   -0.01830
 18 Pt   -0.00806   -0.01132    0.01604
 19 Pt    0.00052    0.01134   -0.00973
 20 Pt   -0.02448    0.02685    0.00902
 21 Pt    0.02173   -0.00711    0.01150
 22 Pt   -0.03020   -0.05105   -0.02352
 23 Pt   -0.01557   -0.01215   -0.01688
 24 Pt    0.00339   -0.01223    0.00024
 25 Pt    0.02644    0.04850   -0.03960
 26 Pt   -0.01417    0.00280    0.01086
 27 C     0.01072    0.00271   -0.09103
 28 O     0.01169   -0.01061    0.07392

Timing:                                      incl.     excl.
-------------------------------------------------------------------
Density initialized from wave functions:    11.690    11.688   0.3% |
 Symmetrize density:                         0.001     0.001   0.0% |
Forces:                                     53.546    53.546   1.2% |
Hamiltonian:                                13.498     0.216   0.0% |
 Atomic:                                     4.895     4.895   0.1% |
  XC Correction:                             0.000     0.000   0.0% |
 Calculate atomic Hamiltonians:              3.835     3.835   0.1% |
 Communicate:                                0.253     0.253   0.0% |
 Initialize Hamiltonian:                     0.000     0.000   0.0% |
 Poisson:                                    0.035     0.035   0.0% |
 XC 3D grid:                                 4.264     4.264   0.1% |
LCAO initialization:                        10.543     0.488   0.0% |
 LCAO eigensolver:                           1.407     0.001   0.0% |
  Calculate projections:                     0.004     0.004   0.0% |
  DenseAtomicCorrection:                     0.004     0.004   0.0% |
  Distribute overlap matrix:                 0.143     0.143   0.0% |
  Orbital Layouts:                           0.087     0.087   0.0% |
  Potential matrix:                          1.156     1.156   0.0% |
  Sum over cells:                            0.014     0.014   0.0% |
 LCAO to grid:                               8.168     8.168   0.2% |
 Set positions (LCAO WFS):                   0.480     0.080   0.0% |
  Basic WFS set positions:                   0.002     0.002   0.0% |
  Basis functions set positions:             0.000     0.000   0.0% |
  P tci:                                     0.192     0.192   0.0% |
  ST tci:                                    0.078     0.078   0.0% |
  mktci:                                     0.128     0.128   0.0% |
PWDescriptor:                                0.038     0.038   0.0% |
Redistribute:                                0.054     0.054   0.0% |
SCF-cycle:                                2058.165    38.347   0.9% |
 Davidson:                                1685.344   325.853   7.6% |--|
  Apply H:                                 167.260   161.952   3.8% |-|
   HMM T:                                    5.309     5.309   0.1% |
  Subspace diag:                           289.296     0.099   0.0% |
   calc_h_matrix:                          206.601    43.893   1.0% |
    Apply H:                               162.708   156.691   3.6% ||
     HMM T:                                  6.017     6.017   0.1% |
   diagonalize:                             14.987    14.987   0.3% |
   rotate_psi:                              67.611    67.611   1.6% ||
  calc. matrices:                          606.232   287.645   6.7% |--|
   Apply H:                                318.588   307.988   7.2% |--|
    HMM T:                                  10.599    10.599   0.2% |
  diagonalize:                             182.222   182.222   4.2% |-|
  rotate_psi:                              114.480   114.480   2.7% ||
 Density:                                  152.508     0.016   0.0% |
  Atomic density matrices:                   1.799     1.799   0.0% |
  Mix:                                      64.492    64.492   1.5% ||
  Multipole moments:                         0.149     0.149   0.0% |
  Pseudo density:                           86.052    86.035   2.0% ||
   Symmetrize density:                       0.017     0.017   0.0% |
 Hamiltonian:                              171.333     2.719   0.1% |
  Atomic:                                   62.180    62.177   1.4% ||
   XC Correction:                            0.003     0.003   0.0% |
  Calculate atomic Hamiltonians:            48.459    48.459   1.1% |
  Communicate:                               3.560     3.560   0.1% |
  Poisson:                                   0.451     0.451   0.0% |
  XC 3D grid:                               53.965    53.965   1.3% ||
 Orthonormalize:                            10.633     0.013   0.0% |
  calc_s_matrix:                             1.653     1.653   0.0% |
  inverse-cholesky:                          0.485     0.485   0.0% |
  projections:                               5.876     5.876   0.1% |
  rotate_psi_s:                              2.606     2.606   0.1% |
Set symmetry:                                0.002     0.002   0.0% |
Other:                                    2158.031  2158.031  50.1% |-------------------|
-------------------------------------------------------------------
Total:                                              4305.565 100.0%

Memory usage: 576.66 MiB
Date: Fri Mar 11 11:23:15 2022
