
  ___ ___ ___ _ _ _  
 |   |   |_  | | | | 
 | | | | | . | | | | 
 |__ |  _|___|_____|  19.8.1
 |___|_|             

User:   ermag@vera08-2
Date:   Fri Mar 11 19:37:01 2022
Arch:   x86_64
Pid:    223795
Python: 3.7.2
gpaw:   /apps/Vera/software/GPAW/19.8.1-intel-2019a-Python-3.7.2/lib/python3.7/site-packages/gpaw
_gpaw:  /apps/Vera/software/GPAW/19.8.1-intel-2019a-Python-3.7.2/bin/
        gpaw-python
ase:    /apps/Vera/software/ASE/3.18.0-intel-2019a-Python-3.7.2/lib/python3.7/site-packages/ase (version 3.18.0)
numpy:  /apps/Vera/software/SciPy-bundle/2019.03-intel-2019a/lib/python3.7/site-packages/numpy (version 1.16.2)
scipy:  /apps/Vera/software/SciPy-bundle/2019.03-intel-2019a/lib/python3.7/site-packages/scipy (version 1.2.1)
libxc:  4.3.4
units:  Angstrom and eV
cores:  16

Input parameters:
  kpts: [1 1 1]
  mode: {ecut: 450.00000000000006,
         gammacentered: False,
         name: pw}
  spinpol: False
  xc: PBE

System changes: positions, numbers, cell, pbc, initial_charges, initial_magmoms 

Initialize ...

O-setup:
  name: Oxygen
  id: 32ecd46bf208036f09c70b0ec9a88b78
  Z: 8
  valence: 6
  core: 2
  charge: 0.0
  file: /apps/Common/software/GPAW-setups/0.9.20000/O.PBE.gz
  compensation charges: gauss, rc=0.21, lmax=2
  cutoffs: 1.17(filt), 0.83(core),
  valence states:
                energy  radius
    2s(2.00)   -23.961   0.688
    2p(4.00)    -9.029   0.598
    *s           3.251   0.688
    *p          18.182   0.598
    *d           0.000   0.619

  Using partial waves for O as LCAO basis

C-setup:
  name: Carbon
  id: 4aa54d4b901d75f77cc0ea3eec22967b
  Z: 6
  valence: 4
  core: 2
  charge: 0.0
  file: /apps/Common/software/GPAW-setups/0.9.20000/C.PBE.gz
  compensation charges: gauss, rc=0.20, lmax=2
  cutoffs: 1.14(filt), 1.14(core),
  valence states:
                energy  radius
    2s(2.00)   -13.751   0.635
    2p(2.00)    -5.284   0.635
    *s          13.461   0.635
    *p          21.927   0.635
    *d           0.000   0.635

  Using partial waves for C as LCAO basis

Reference energy: -3068.480417

Spin-paired calculation

Occupation numbers:
  Fermi-Dirac: width=0.1000 eV

Convergence criteria:
  Maximum total energy change: 0.0005 eV / electron
  Maximum integral of absolute density change: 0.0001 electrons
  Maximum integral of absolute eigenstate change: 4e-08 eV^2
  Maximum number of iterations: 333

Symmetries present (total): 8

  ( 1  0  0)  ( 1  0  0)  ( 0  1  0)  ( 0  1  0)  ( 0 -1  0)  ( 0 -1  0)
  ( 0  1  0)  ( 0 -1  0)  ( 1  0  0)  (-1  0  0)  ( 1  0  0)  (-1  0  0)
  ( 0  0  1)  ( 0  0  1)  ( 0  0  1)  ( 0  0  1)  ( 0  0  1)  ( 0  0  1)

  (-1  0  0)  (-1  0  0)
  ( 0  1  0)  ( 0 -1  0)
  ( 0  0  1)  ( 0  0  1)

1 k-point (Gamma)
1 k-point in the irreducible part of the Brillouin zone
       k-points in crystal coordinates                weights
   0:     0.00000000    0.00000000    0.00000000          1/1

Wave functions: Plane wave expansion
  Cutoff energy: 450.000 eV
  Number of coefficients: 37529 (reduced to 18765)
  Pulay-stress correction: 0.000000 eV/Ang^3 (de/decut=0.000000)
  Using FFTW library
  ScaLapack parameters: grid=1x1, blocksize=None
  Wavefunction extrapolation:
    Improved wavefunction reuse through dual PAW basis 

Eigensolver
   Davidson(niter=2, smin=None, normalize=True) 

Densities:
  Coarse grid: 60*60*60 grid
  Fine grid: 120*120*120 grid
  Total Charge: 0.000000 

Density mixing:
  Method: separate
  Backend: pulay
  Linear mixing parameter: 0.05
  Mixing with 5 old densities
  Damping of long wave oscillations: 50 

Hamiltonian:
  XC and Coulomb potentials evaluated on a 120*120*120 grid
  Using the PBE Exchange-Correlation functional
 

XC parameters: PBE with 2 nearest neighbor stencil

Memory estimate:
  Process memory now: 292.50 MiB
  Calculator: 19.12 MiB
    Density: 6.81 MiB
      Arrays: 2.68 MiB
      Localized functions: 3.11 MiB
      Mixer: 1.03 MiB
    Hamiltonian: 1.83 MiB
      Arrays: 1.75 MiB
      XC: 0.00 MiB
      Poisson: 0.00 MiB
      vbar: 0.08 MiB
    Wavefunctions: 10.48 MiB
      Arrays psit_nG: 2.29 MiB
      Eigensolver: 3.73 MiB
      Projections: 0.00 MiB
      Projectors: 0.17 MiB
      PW-descriptor: 4.29 MiB

Total number of cores used: 16
Domain decomposition: 4 x 2 x 2

Number of atoms: 2
Number of atomic orbitals: 8
Number of bands in calculation: 8
Bands to converge: occupied states only
Number of valence electrons: 10

... initialized

Initializing position-dependent things.

Density initialized from atomic densities
Creating initial wave functions:
  8 bands from LCAO basis set

        .----------------------------.  
       /|                            |  
      / |                            |  
     /  |                            |  
    /   |                            |  
   /    |                            |  
  /     |                            |  
 *      |                            |  
 C      |                            |  
 |      |                            |  
 |      |                            |  
 |      |                            |  
 |      |                            |  
 |      |                            |  
 |      |                            |  
 |      .----------------------------.  
 |     /                            /   
 |    /                            /    
 |   /                            /     
 |  /                            /      
 | /                            /       
 O/                            /        
 *----------------------------*         

Positions:
   0 O      0.000000    0.000000    0.493003    ( 0.0000,  0.0000,  0.0000)
   1 C      0.000000    0.000000   -0.657337    ( 0.0000,  0.0000,  0.0000)

Unit cell:
           periodic     x           y           z      points  spacing
  1. axis:    yes   12.000000    0.000000    0.000000    60     0.2000
  2. axis:    yes    0.000000   12.000000    0.000000    60     0.2000
  3. axis:    yes    0.000000    0.000000   12.000000    60     0.2000

  Lengths:  12.000000  12.000000  12.000000
  Angles:   90.000000  90.000000  90.000000

Effective grid spacing dv^(1/3) = 0.2000

                     log10-error:    total        iterations:
           time      wfs    density  energy       fermi  poisson
iter:   1  19:38:24  +1.36   +inf   -14.752772    0             
iter:   2  19:38:24  -1.16  -0.92   -14.696061    0             
iter:   3  19:38:25  -1.47  -0.94   -14.330042    0             
iter:   4  19:38:25  -2.09  -1.19   -14.265153    0             
iter:   5  19:38:26  -1.54  -1.33   -14.214803    7             
iter:   6  19:38:26  -2.62  -1.71   -14.215896    0             
iter:   7  19:38:27  -2.44  -1.70   -14.192291    0             
iter:   8  19:38:28  -3.46  -2.33   -14.191027    0             
iter:   9  19:38:28  -4.83  -2.79   -14.190993    0             
iter:  10  19:38:28  -4.49  -2.84   -14.191064    0             
iter:  11  19:38:29  -5.01  -2.93   -14.190974    0             
iter:  12  19:38:29  -5.75  -3.57   -14.190971    0             
iter:  13  19:38:30  -6.51  -3.67   -14.190972    0             
iter:  14  19:38:30  -6.73  -3.70   -14.190970    0             
iter:  15  19:38:31  -7.42  -3.84   -14.190970    0             
iter:  16  19:38:31  -7.08  -3.88   -14.190970    0             
iter:  17  19:38:32  -7.44  -4.30   -14.190970    0             

Converged after 17 iterations.

Dipole moment: (0.000000, -0.000000, -1.653216) |e|*Ang

Energy contributions relative to reference atoms: (reference = -3068.480417)

Kinetic:         +9.926370
Potential:      -13.479772
External:        +0.000000
XC:             -10.605426
Entropy (-ST):   -0.000000
Local:           -0.032141
--------------------------
Free energy:    -14.190970
Extrapolated:   -14.190970

Fermi level: -6.14177

 Band  Eigenvalues  Occupancy
    0    -29.03670    2.00000
    1    -14.07373    2.00000
    2    -11.56109    2.00000
    3    -11.56109    2.00000
    4     -8.97059    2.00000
    5     -2.09454    0.00000
    6     -2.09454    0.00000
    7     -0.22751    0.00000

Gap: 6.876 eV
Transition (v -> c):
  (s=0, k=0, n=4, [0.00, 0.00, 0.00]) -> (s=0, k=0, n=5, [0.00, 0.00, 0.00])

Forces in eV/Ang:
  0 O     0.00000    0.00000   -1.07196
  1 C     0.00000    0.00000    1.09479

System changes: positions 

Initializing position-dependent things.

Density initialized from wave functions
        .----------------------------.  
       /|                            |  
      / |                            |  
     /  |                            |  
    /   |                            |  
   /    |                            |  
  /     |                            |  
 *      |                            |  
 C      |                            |  
 |      |                            |  
 |      |                            |  
 |      |                            |  
 |      |                            |  
 |      |                            |  
 |      |                            |  
 |      .----------------------------.  
 |     /                            /   
 |    /                            /    
 |   /                            /     
 |  /                            /      
 | /                            /       
 O/                            /        
 *----------------------------*         

Positions:
   0 O      0.000000    0.000000    0.477689    ( 0.0000,  0.0000,  0.0000)
   1 C      0.000000    0.000000   -0.641697    ( 0.0000,  0.0000,  0.0000)

Unit cell:
           periodic     x           y           z      points  spacing
  1. axis:    yes   12.000000    0.000000    0.000000    60     0.2000
  2. axis:    yes    0.000000   12.000000    0.000000    60     0.2000
  3. axis:    yes    0.000000    0.000000   12.000000    60     0.2000

  Lengths:  12.000000  12.000000  12.000000
  Angles:   90.000000  90.000000  90.000000

Effective grid spacing dv^(1/3) = 0.2000

                     log10-error:    total        iterations:
           time      wfs    density  energy       fermi  poisson
iter:   1  19:38:33  -1.78   +inf   -14.175705    0             
iter:   2  19:38:33  -3.33  -2.02   -14.175088    0             
iter:   3  19:38:34  -3.21  -2.03   -14.171050    0             
iter:   4  19:38:34  -4.81  -2.38   -14.170960    0             
iter:   5  19:38:35  -3.82  -2.39   -14.170312    0             
iter:   6  19:38:35  -4.61  -2.86   -14.170340    0             
iter:   7  19:38:36  -4.38  -2.92   -14.170413    0             
iter:   8  19:38:36  -4.91  -2.86   -14.170285    0             
iter:   9  19:38:37  -5.96  -3.78   -14.170284    0             
iter:  10  19:38:37  -6.70  -3.86   -14.170285    0             
iter:  11  19:38:37  -7.06  -3.97   -14.170284    0             
iter:  12  19:38:38  -7.59  -4.45   -14.170284    0             

Converged after 12 iterations.

Dipole moment: (0.000000, -0.000000, -1.997837) |e|*Ang

Energy contributions relative to reference atoms: (reference = -3068.480417)

Kinetic:        +14.179227
Potential:      -16.834990
External:        +0.000000
XC:             -11.474598
Entropy (-ST):   -0.000000
Local:           -0.039923
--------------------------
Free energy:    -14.170284
Extrapolated:   -14.170284

Fermi level: -6.14177

 Band  Eigenvalues  Occupancy
    0    -29.47563    2.00000
    1    -14.05753    2.00000
    2    -11.83001    2.00000
    3    -11.83001    2.00000
    4     -8.89778    2.00000
    5     -1.79655    0.00000
    6     -1.79655    0.00000
    7     -0.22526    0.00000

Gap: 7.101 eV
Transition (v -> c):
  (s=0, k=0, n=4, [0.00, 0.00, 0.00]) -> (s=0, k=0, n=5, [0.00, 0.00, 0.00])

Forces in eV/Ang:
  0 O     0.00000    0.00000    2.54801
  1 C     0.00000    0.00000   -2.56026

System changes: positions 

Initializing position-dependent things.

Density initialized from wave functions
        .----------------------------.  
       /|                            |  
      / |                            |  
     /  |                            |  
    /   |                            |  
   /    |                            |  
  /     |                            |  
 *      |                            |  
 C      |                            |  
 |      |                            |  
 |      |                            |  
 |      |                            |  
 |      |                            |  
 |      |                            |  
 |      |                            |  
 |      .----------------------------.  
 |     /                            /   
 |    /                            /    
 |   /                            /     
 |  /                            /      
 | /                            /       
 O/                            /        
 *----------------------------*         

Positions:
   0 O      0.000000    0.000000    0.488531    ( 0.0000,  0.0000,  0.0000)
   1 C      0.000000    0.000000   -0.652591    ( 0.0000,  0.0000,  0.0000)

Unit cell:
           periodic     x           y           z      points  spacing
  1. axis:    yes   12.000000    0.000000    0.000000    60     0.2000
  2. axis:    yes    0.000000   12.000000    0.000000    60     0.2000
  3. axis:    yes    0.000000    0.000000   12.000000    60     0.2000

  Lengths:  12.000000  12.000000  12.000000
  Angles:   90.000000  90.000000  90.000000

Effective grid spacing dv^(1/3) = 0.2000

                     log10-error:    total        iterations:
           time      wfs    density  energy       fermi  poisson
iter:   1  19:38:39  -2.05   +inf   -14.199316    0             
iter:   2  19:38:39  -3.58  -2.16   -14.198991    0             
iter:   3  19:38:40  -3.45  -2.17   -14.196820    0             
iter:   4  19:38:40  -4.92  -2.52   -14.196791    0             
iter:   5  19:38:40  -4.04  -2.52   -14.196417    0             
iter:   6  19:38:41  -4.90  -3.02   -14.196434    0             
iter:   7  19:38:41  -4.78  -3.06   -14.196448    0             
iter:   8  19:38:42  -5.27  -3.09   -14.196407    0             
iter:   9  19:38:42  -6.43  -3.98   -14.196407    0             
iter:  10  19:38:43  -6.84  -4.00   -14.196407    0             
iter:  11  19:38:43  -7.51  -4.17   -14.196407    0             

Converged after 11 iterations.

Dipole moment: (-0.000000, 0.000000, -1.750149) |e|*Ang

Energy contributions relative to reference atoms: (reference = -3068.480417)

Kinetic:        +11.137235
Potential:      -14.437952
External:        +0.000000
XC:             -10.857903
Entropy (-ST):   -0.000000
Local:           -0.037787
--------------------------
Free energy:    -14.196407
Extrapolated:   -14.196407

Fermi level: -6.14177

 Band  Eigenvalues  Occupancy
    0    -29.16649    2.00000
    1    -14.06859    2.00000
    2    -11.63959    2.00000
    3    -11.63959    2.00000
    4     -8.94923    2.00000
    5     -2.00695    0.00000
    6     -2.00695    0.00000
    7     -0.22680    0.00000

Gap: 6.942 eV
Transition (v -> c):
  (s=0, k=0, n=4, [0.00, 0.00, 0.00]) -> (s=0, k=0, n=5, [0.00, 0.00, 0.00])

Forces in eV/Ang:
  0 O     0.00000    0.00000   -0.07261
  1 C     0.00000    0.00000    0.08744

System changes: positions 

Initializing position-dependent things.

Density initialized from wave functions
        .----------------------------.  
       /|                            |  
      / |                            |  
     /  |                            |  
    /   |                            |  
   /    |                            |  
  /     |                            |  
 *      |                            |  
 C      |                            |  
 |      |                            |  
 |      |                            |  
 |      |                            |  
 |      |                            |  
 |      |                            |  
 |      |                            |  
 |      .----------------------------.  
 |     /                            /   
 |    /                            /    
 |   /                            /     
 |  /                            /      
 | /                            /       
 O/                            /        
 *----------------------------*         

Positions:
   0 O      0.000000    0.000000    0.488302    ( 0.0000,  0.0000,  0.0000)
   1 C      0.000000    0.000000   -0.652160    ( 0.0000,  0.0000,  0.0000)

Unit cell:
           periodic     x           y           z      points  spacing
  1. axis:    yes   12.000000    0.000000    0.000000    60     0.2000
  2. axis:    yes    0.000000   12.000000    0.000000    60     0.2000
  3. axis:    yes    0.000000    0.000000   12.000000    60     0.2000

  Lengths:  12.000000  12.000000  12.000000
  Angles:   90.000000  90.000000  90.000000

Effective grid spacing dv^(1/3) = 0.2000

                     log10-error:    total        iterations:
           time      wfs    density  energy       fermi  poisson
iter:   1  19:38:44  -5.06   +inf   -14.196441    0             
iter:   2  19:38:44  -6.53  -3.67   -14.196440    0             
iter:   3  19:38:45  -6.58  -3.68   -14.196438    0             
iter:   4  19:38:45  -8.19  -4.00   -14.196438    0             
iter:   5  19:38:46  -7.04  -4.02   -14.196438    0             
iter:   6  19:38:46  -7.94  -4.52   -14.196438    0             

Converged after 6 iterations.

Dipole moment: (0.000000, -0.000000, -1.752192) |e|*Ang

Energy contributions relative to reference atoms: (reference = -3068.480417)

Kinetic:        +11.226177
Potential:      -14.511531
External:        +0.000000
XC:             -10.876687
Entropy (-ST):   -0.000000
Local:           -0.034397
--------------------------
Free energy:    -14.196438
Extrapolated:   -14.196438

Fermi level: -6.14177

 Band  Eigenvalues  Occupancy
    0    -29.17550    2.00000
    1    -14.06787    2.00000
    2    -11.64492    2.00000
    3    -11.64492    2.00000
    4     -8.94753    2.00000
    5     -2.00044    0.00000
    6     -2.00044    0.00000
    7     -0.22674    0.00000

Gap: 6.947 eV
Transition (v -> c):
  (s=0, k=0, n=4, [0.00, 0.00, 0.00]) -> (s=0, k=0, n=5, [0.00, 0.00, 0.00])

Forces in eV/Ang:
  0 O     0.00000    0.00000    0.00241
  1 C     0.00000    0.00000    0.01039

Timing:                                      incl.     excl.
-------------------------------------------------------------------
Density initialized from wave functions:     0.752     0.166   0.2% |
 Symmetrize density:                         0.585     0.585   0.6% |
Forces:                                      0.197     0.197   0.2% |
Hamiltonian:                                 0.742     0.026   0.0% |
 Atomic:                                     0.257     0.257   0.2% |
  XC Correction:                             0.000     0.000   0.0% |
 Calculate atomic Hamiltonians:              0.023     0.023   0.0% |
 Communicate:                                0.000     0.000   0.0% |
 Initialize Hamiltonian:                     0.000     0.000   0.0% |
 Poisson:                                    0.004     0.004   0.0% |
 XC 3D grid:                                 0.431     0.431   0.4% |
LCAO initialization:                         0.150     0.103   0.1% |
 LCAO eigensolver:                           0.002     0.000   0.0% |
  Calculate projections:                     0.000     0.000   0.0% |
  DenseAtomicCorrection:                     0.000     0.000   0.0% |
  Distribute overlap matrix:                 0.000     0.000   0.0% |
  Orbital Layouts:                           0.000     0.000   0.0% |
  Potential matrix:                          0.001     0.001   0.0% |
 LCAO to grid:                               0.028     0.028   0.0% |
 Set positions (LCAO WFS):                   0.017     0.010   0.0% |
  Basic WFS set positions:                   0.001     0.001   0.0% |
  Basis functions set positions:             0.000     0.000   0.0% |
  P tci:                                     0.002     0.002   0.0% |
  ST tci:                                    0.001     0.001   0.0% |
  mktci:                                     0.003     0.003   0.0% |
PWDescriptor:                                0.021     0.021   0.0% |
Redistribute:                                0.002     0.002   0.0% |
SCF-cycle:                                  20.878     0.436   0.4% |
 Davidson:                                   2.174     0.258   0.2% |
  Apply H:                                   0.418     0.414   0.4% |
   HMM T:                                    0.005     0.005   0.0% |
  Subspace diag:                             0.475     0.007   0.0% |
   calc_h_matrix:                            0.442     0.024   0.0% |
    Apply H:                                 0.418     0.413   0.4% |
     HMM T:                                  0.005     0.005   0.0% |
   diagonalize:                              0.016     0.016   0.0% |
   rotate_psi:                               0.010     0.010   0.0% |
  calc. matrices:                            0.972     0.140   0.1% |
   Apply H:                                  0.832     0.822   0.8% |
    HMM T:                                   0.010     0.010   0.0% |
  diagonalize:                               0.036     0.036   0.0% |
  rotate_psi:                                0.015     0.015   0.0% |
 Density:                                   10.413     0.001   0.0% |
  Atomic density matrices:                   0.041     0.041   0.0% |
  Mix:                                       1.909     1.909   1.8% ||
  Multipole moments:                         0.008     0.008   0.0% |
  Pseudo density:                            8.453     0.368   0.4% |
   Symmetrize density:                       8.085     8.085   7.7% |--|
 Hamiltonian:                                7.848     0.275   0.3% |
  Atomic:                                    2.726     2.726   2.6% ||
   XC Correction:                            0.000     0.000   0.0% |
  Calculate atomic Hamiltonians:             0.241     0.241   0.2% |
  Communicate:                               0.003     0.003   0.0% |
  Poisson:                                   0.042     0.042   0.0% |
  XC 3D grid:                                4.561     4.561   4.3% |-|
 Orthonormalize:                             0.006     0.001   0.0% |
  calc_s_matrix:                             0.002     0.002   0.0% |
  inverse-cholesky:                          0.001     0.001   0.0% |
  projections:                               0.003     0.003   0.0% |
  rotate_psi_s:                              0.000     0.000   0.0% |
Set symmetry:                                0.006     0.006   0.0% |
Other:                                      82.392    82.392  78.4% |------------------------------|
-------------------------------------------------------------------
Total:                                               105.141 100.0%

Memory usage: 320.13 MiB
Date: Fri Mar 11 19:38:46 2022
tribute:                                0.002     0.002   0.0% |
SCF-cycle:                                  73.359     2.857   2.7% ||
 Davidson:                                   3.046     0.436   0.4% |
  Apply H:                                   0.564     0.551   0.5% |
   HMM T:                                    0.012     0.012   0.0% |
  Subspace diag:                             0.661     0.009   0.0% |
   calc_h_matrix:                            0.612     0.039   0.0% |
    Apply H:                                 0.573     0.559   0.5% |
     HMM T:                                  0.014     0.014   0.0% |
   diagonalize:                              0.020     0.020   0.0% |
   rotate_psi:                               0.021     0.021   0.0% |
  calc. matrices:                            1.308     0.189   0.2% |
   Apply H:                                  1.119     1.093   1.0% |
    HMM T:                                   0.027     0.027   0.0% |
  diagonalize:                               0.041     0.041   0.0% |
  rotate_psi:                                0.035     0.035   0.0% |
 Density:                                   41.938     0.002   0.0% |
  Atomic density matrices:                   1.545     1.545   1.5% ||
  Mix:                                       4.919     4.919   4.7% |-|
  Multipole moments:                         0.010     0.010   0.0% |
  Pseudo density:                           35.461     0.465   0.4% |
   Symmetrize density:                      34.996    34.996  33.3% |------------|
 Hamiltonian:                               25.506     0.373   0.4% |
  Atomic:                                    5.944     5.943   5.7% |-|
   XC Correction:                            0.000     0.000   0.0% |
  Calculate atomic Hamiltonians:             0.560     0.560   0.5% |
  Communicate:                               0.014     0.014   0.0% |
  Poisson:                                   0.104     0.104   0.1% |
  XC 3D grid:                               18.513    18.513  17.6% |------|
 Orthonormalize:                             0.012     0.001   0.0% |
  calc_s_matrix:                             0.002     0.002   0.0% |
  inverse-cholesky:                          0.002     0.002   0.0% |
  projections:                               0.007     0.007   0.0% |
  rotate_psi_s:                              0.001     0.001   0.0% |
Set symmetry:                                0.006     0.006   0.0% |
Other:                                      26.742    26.742  25.4% |---------|
-------------------------------------------------------------------
Total:                                               105.160 100.0%

Memory usage: 320.13 MiB
Date: Fri Mar 11 19:38:46 2022
