
  ___ ___ ___ _ _ _  
 |   |   |_  | | | | 
 | | | | | . | | | | 
 |__ |  _|___|_____|  19.8.1
 |___|_|             

User:   ermag@vera48-3
Date:   Thu Mar 10 20:18:12 2022
Arch:   x86_64
Pid:    49667
Python: 3.7.2
gpaw:   /apps/Vera/software/GPAW/19.8.1-intel-2019a-Python-3.7.2/lib/python3.7/site-packages/gpaw
_gpaw:  /apps/Vera/software/GPAW/19.8.1-intel-2019a-Python-3.7.2/bin/
        gpaw-python
ase:    /apps/Vera/software/ASE/3.18.0-intel-2019a-Python-3.7.2/lib/python3.7/site-packages/ase (version 3.18.0)
numpy:  /apps/Vera/software/SciPy-bundle/2019.03-intel-2019a/lib/python3.7/site-packages/numpy (version 1.16.2)
scipy:  /apps/Vera/software/SciPy-bundle/2019.03-intel-2019a/lib/python3.7/site-packages/scipy (version 1.2.1)
libxc:  4.3.4
units:  Angstrom and eV
cores:  16

Input parameters:
  kpts: [1 1 1]
  mode: {ecut: 450.00000000000006,
         gammacentered: False,
         name: pw}
  spinpol: False
  xc: PBE

System changes: positions, numbers, cell, pbc, initial_charges, initial_magmoms 

Initialize ...

O-setup:
  name: Oxygen
  id: 32ecd46bf208036f09c70b0ec9a88b78
  Z: 8
  valence: 6
  core: 2
  charge: 0.0
  file: /apps/Common/software/GPAW-setups/0.9.20000/O.PBE.gz
  compensation charges: gauss, rc=0.21, lmax=2
  cutoffs: 1.17(filt), 0.83(core),
  valence states:
                energy  radius
    2s(2.00)   -23.961   0.688
    2p(4.00)    -9.029   0.598
    *s           3.251   0.688
    *p          18.182   0.598
    *d           0.000   0.619

  Using partial waves for O as LCAO basis

C-setup:
  name: Carbon
  id: 4aa54d4b901d75f77cc0ea3eec22967b
  Z: 6
  valence: 4
  core: 2
  charge: 0.0
  file: /apps/Common/software/GPAW-setups/0.9.20000/C.PBE.gz
  compensation charges: gauss, rc=0.20, lmax=2
  cutoffs: 1.14(filt), 1.14(core),
  valence states:
                energy  radius
    2s(2.00)   -13.751   0.635
    2p(2.00)    -5.284   0.635
    *s          13.461   0.635
    *p          21.927   0.635
    *d           0.000   0.635

  Using partial waves for C as LCAO basis

Reference energy: -3068.480417

Spin-paired calculation

Occupation numbers:
  Fermi-Dirac: width=0.0000 eV

Convergence criteria:
  Maximum total energy change: 0.0005 eV / electron
  Maximum integral of absolute density change: 0.0001 electrons
  Maximum integral of absolute eigenstate change: 4e-08 eV^2
  Maximum number of iterations: 333

Symmetries present (total): 1

  ( 1  0  0)
  ( 0  1  0)
  ( 0  0  1)

1 k-point (Gamma)
1 k-point in the irreducible part of the Brillouin zone
       k-points in crystal coordinates                weights
   0:     0.00000000    0.00000000    0.00000000          1/1

Wave functions: Plane wave expansion
  Cutoff energy: 450.000 eV
  Number of coefficients: 41061 (reduced to 20531)
  Pulay-stress correction: 0.000000 eV/Ang^3 (de/decut=0.000000)
  Using FFTW library
  ScaLapack parameters: grid=1x1, blocksize=None
  Wavefunction extrapolation:
    Improved wavefunction reuse through dual PAW basis 

Eigensolver
   Davidson(niter=2, smin=None, normalize=True) 

Densities:
  Coarse grid: 60*60*70 grid
  Fine grid: 120*120*140 grid
  Total Charge: 0.000000 

Density mixing:
  Method: separate
  Backend: pulay
  Linear mixing parameter: 0.05
  Mixing with 5 old densities
  Damping of long wave oscillations: 50 

Hamiltonian:
  XC and Coulomb potentials evaluated on a 120*120*140 grid
  Using the PBE Exchange-Correlation functional
 

XC parameters: PBE with 2 nearest neighbor stencil

Memory estimate:
  Process memory now: 320.36 MiB
  Calculator: 21.65 MiB
    Density: 7.77 MiB
      Arrays: 3.13 MiB
      Localized functions: 3.40 MiB
      Mixer: 1.24 MiB
    Hamiltonian: 2.13 MiB
      Arrays: 2.05 MiB
      XC: 0.00 MiB
      Poisson: 0.00 MiB
      vbar: 0.08 MiB
    Wavefunctions: 11.75 MiB
      Arrays psit_nG: 2.51 MiB
      Eigensolver: 4.08 MiB
      Projections: 0.00 MiB
      Projectors: 0.19 MiB
      PW-descriptor: 4.98 MiB

Total number of cores used: 16
Domain decomposition: 2 x 2 x 4

Number of atoms: 2
Number of atomic orbitals: 8
Number of bands in calculation: 8
Bands to converge: occupied states only
Number of valence electrons: 10

... initialized

Initializing position-dependent things.

Density initialized from atomic densities
Creating initial wave functions:
  8 bands from LCAO basis set

        .----------------------------.  
       /|                            |  
      / |                            |  
     /  |                            |  
    /   |                            |  
   /    |                            |  
  /     |                            |  
 *      |                            |  
 |      |                            |  
 |      |                            |  
 |      |                            |  
 |      |          O                 |  
 |      |          C                 |  
 |      |                            |  
 |      |                            |  
 |      |                            |  
 |      .----------------------------.  
 |     /                            /   
 |    /                            /    
 |   /                            /     
 |  /                            /      
 | /                            /       
 |/                            /        
 *----------------------------*         

Positions:
   0 O      6.000000    6.000000    7.150340    ( 0.0000,  0.0000,  0.0000)
   1 C      6.000000    6.000000    6.000000    ( 0.0000,  0.0000,  0.0000)

Unit cell:
           periodic     x           y           z      points  spacing
  1. axis:    no    12.000000    0.000000    0.000000    60     0.2000
  2. axis:    no     0.000000   12.000000    0.000000    60     0.2000
  3. axis:    no     0.000000    0.000000   13.150340    70     0.1879

  Lengths:  12.000000  12.000000  13.150340
  Angles:   90.000000  90.000000  90.000000

Effective grid spacing dv^(1/3) = 0.1959

                     log10-error:    total        iterations:
           time      wfs    density  energy       fermi  poisson
iter:   1  20:19:13  +1.36   +inf   -14.745749    0             
iter:   2  20:19:13  -1.16  -0.92   -14.689306    0             
iter:   3  20:19:14  -1.47  -0.95   -14.322949    0             
iter:   4  20:19:14  -2.08  -1.18   -14.258753    0             
iter:   5  20:19:14  -1.54  -1.32   -14.209585    0             
iter:   6  20:19:15  -2.63  -1.71   -14.210243    0             
iter:   7  20:19:15  -2.43  -1.70   -14.186666    0             
iter:   8  20:19:15  -3.47  -2.33   -14.185390    0             
iter:   9  20:19:16  -4.84  -2.80   -14.185354    0             
iter:  10  20:19:16  -4.48  -2.85   -14.185428    0             
iter:  11  20:19:17  -5.03  -2.93   -14.185336    0             
iter:  12  20:19:17  -5.72  -3.56   -14.185333    0             
iter:  13  20:19:17  -6.62  -3.67   -14.185333    0             
iter:  14  20:19:18  -6.91  -3.71   -14.185332    0             
iter:  15  20:19:18  -7.42  -3.81   -14.185332    0             
iter:  16  20:19:18  -6.99  -3.85   -14.185332    0             
iter:  17  20:19:19  -7.57  -4.00   -14.185332    0             
iter:  18  20:19:19  -7.71  -4.04   -14.185332    0             

Converged after 18 iterations.

Dipole moment: (-0.000000, -0.000000, 0.034804) |e|*Ang

Energy contributions relative to reference atoms: (reference = -3068.480417)

Kinetic:         +9.885518
Potential:      -13.437513
External:        +0.000000
XC:             -10.602279
Entropy (-ST):   +0.000000
Local:           -0.031059
--------------------------
Free energy:    -14.185332
Extrapolated:   -14.185332

Fermi level: -5.54363

 Band  Eigenvalues  Occupancy
    0    -29.05017    2.00000
    1    -14.08650    2.00000
    2    -11.57386    2.00000
    3    -11.57386    2.00000
    4     -8.98142    2.00000
    5     -2.10583    0.00000
    6     -2.10583    0.00000
    7     -0.22734    0.00000

Gap: 6.876 eV
Transition (v -> c):
  (s=0, k=0, n=4, [0.00, 0.00, 0.00]) -> (s=0, k=0, n=5, [0.00, 0.00, 0.00])

Forces in eV/Ang:
  0 O     0.00000   -0.00000   -1.08510
  1 C     0.00000   -0.00000    1.07047

System changes: positions 

Initializing position-dependent things.

Density initialized from wave functions
        .----------------------------.  
       /|                            |  
      / |                            |  
     /  |                            |  
    /   |                            |  
   /    |                            |  
  /     |                            |  
 *      |                            |  
 |      |                            |  
 |      |                            |  
 |      |                            |  
 |      |          O                 |  
 |      |          C                 |  
 |      |                            |  
 |      |                            |  
 |      |                            |  
 |      .----------------------------.  
 |     /                            /   
 |    /                            /    
 |   /                            /     
 |  /                            /      
 | /                            /       
 |/                            /        
 *----------------------------*         

Positions:
   0 O      6.000000    6.000000    7.134839    ( 0.0000,  0.0000,  0.0000)
   1 C      6.000000    6.000000    6.015292    ( 0.0000,  0.0000,  0.0000)

Unit cell:
           periodic     x           y           z      points  spacing
  1. axis:    no    12.000000    0.000000    0.000000    60     0.2000
  2. axis:    no     0.000000   12.000000    0.000000    60     0.2000
  3. axis:    no     0.000000    0.000000   13.150340    70     0.1879

  Lengths:  12.000000  12.000000  13.150340
  Angles:   90.000000  90.000000  90.000000

Effective grid spacing dv^(1/3) = 0.1959

                     log10-error:    total        iterations:
           time      wfs    density  energy       fermi  poisson
iter:   1  20:19:20  -1.79   +inf   -14.170048    0             
iter:   2  20:19:20  -3.34  -2.02   -14.169458    0             
iter:   3  20:19:20  -3.21  -2.04   -14.165464    0             
iter:   4  20:19:21  -4.85  -2.40   -14.165371    0             
iter:   5  20:19:21  -3.85  -2.40   -14.164772    0             
iter:   6  20:19:21  -4.59  -2.86   -14.164799    0             
iter:   7  20:19:22  -4.41  -2.92   -14.164861    0             
iter:   8  20:19:22  -4.95  -2.88   -14.164744    0             
iter:   9  20:19:22  -6.01  -3.78   -14.164743    0             
iter:  10  20:19:23  -6.74  -3.87   -14.164744    0             
iter:  11  20:19:23  -7.07  -3.97   -14.164743    0             
iter:  12  20:19:23  -7.62  -4.43   -14.164743    0             

Converged after 12 iterations.

Dipole moment: (0.000000, -0.000000, 0.055614) |e|*Ang

Energy contributions relative to reference atoms: (reference = -3068.480417)

Kinetic:        +14.124882
Potential:      -16.778774
External:        +0.000000
XC:             -11.468535
Entropy (-ST):   +0.000000
Local:           -0.042315
--------------------------
Free energy:    -14.164743
Extrapolated:   -14.164743

Fermi level: -5.35872

 Band  Eigenvalues  Occupancy
    0    -29.48579    2.00000
    1    -14.06949    2.00000
    2    -11.84044    2.00000
    3    -11.84044    2.00000
    4     -8.90853    2.00000
    5     -1.80890    0.00000
    6     -1.80890    0.00000
    7     -0.22547    0.00000

Gap: 7.100 eV
Transition (v -> c):
  (s=0, k=0, n=4, [0.00, 0.00, 0.00]) -> (s=0, k=0, n=5, [0.00, 0.00, 0.00])

Forces in eV/Ang:
  0 O     0.00000   -0.00000    2.54847
  1 C     0.00000    0.00000   -2.55580

System changes: positions 

Initializing position-dependent things.

Density initialized from wave functions
        .----------------------------.  
       /|                            |  
      / |                            |  
     /  |                            |  
    /   |                            |  
   /    |                            |  
  /     |                            |  
 *      |                            |  
 |      |                            |  
 |      |                            |  
 |      |                            |  
 |      |          O                 |  
 |      |          C                 |  
 |      |                            |  
 |      |                            |  
 |      |                            |  
 |      .----------------------------.  
 |     /                            /   
 |    /                            /    
 |   /                            /     
 |  /                            /      
 | /                            /       
 |/                            /        
 *----------------------------*         

Positions:
   0 O      6.000000    6.000000    7.145648    ( 0.0000,  0.0000,  0.0000)
   1 C      6.000000    6.000000    6.004452    ( 0.0000,  0.0000,  0.0000)

Unit cell:
           periodic     x           y           z      points  spacing
  1. axis:    no    12.000000    0.000000    0.000000    60     0.2000
  2. axis:    no     0.000000   12.000000    0.000000    60     0.2000
  3. axis:    no     0.000000    0.000000   13.150340    70     0.1879

  Lengths:  12.000000  12.000000  13.150340
  Angles:   90.000000  90.000000  90.000000

Effective grid spacing dv^(1/3) = 0.1959

                     log10-error:    total        iterations:
           time      wfs    density  energy       fermi  poisson
iter:   1  20:19:24  -2.05   +inf   -14.193621    0             
iter:   2  20:19:24  -3.59  -2.16   -14.193297    0             
iter:   3  20:19:25  -3.45  -2.17   -14.191140    0             
iter:   4  20:19:25  -4.93  -2.53   -14.191109    0             
iter:   5  20:19:25  -4.05  -2.52   -14.190739    0             
iter:   6  20:19:26  -4.89  -3.02   -14.190755    0             
iter:   7  20:19:26  -4.78  -3.07   -14.190771    0             
iter:   8  20:19:26  -5.27  -3.09   -14.190728    0             
iter:   9  20:19:27  -6.42  -3.99   -14.190728    0             
iter:  10  20:19:27  -6.86  -4.00   -14.190729    0             
iter:  11  20:19:28  -7.49  -4.17   -14.190728    0             

Converged after 11 iterations.

Dipole moment: (-0.000000, -0.000000, 0.041154) |e|*Ang

Energy contributions relative to reference atoms: (reference = -3068.480417)

Kinetic:        +11.097154
Potential:      -14.392564
External:        +0.000000
XC:             -10.854588
Entropy (-ST):   +0.000000
Local:           -0.040730
--------------------------
Free energy:    -14.190728
Extrapolated:   -14.190728

Fermi level: -5.48901

 Band  Eigenvalues  Occupancy
    0    -29.17760    2.00000
    1    -14.08052    2.00000
    2    -11.65070    2.00000
    3    -11.65070    2.00000
    4     -8.95970    2.00000
    5     -2.01832    0.00000
    6     -2.01832    0.00000
    7     -0.22681    0.00000

Gap: 6.941 eV
Transition (v -> c):
  (s=0, k=0, n=4, [0.00, 0.00, 0.00]) -> (s=0, k=0, n=5, [0.00, 0.00, 0.00])

Forces in eV/Ang:
  0 O     0.00000   -0.00000   -0.08792
  1 C     0.00000    0.00000    0.07655

System changes: positions 

Initializing position-dependent things.

Density initialized from wave functions
        .----------------------------.  
       /|                            |  
      / |                            |  
     /  |                            |  
    /   |                            |  
   /    |                            |  
  /     |                            |  
 *      |                            |  
 |      |                            |  
 |      |                            |  
 |      |                            |  
 |      |          O                 |  
 |      |          C                 |  
 |      |                            |  
 |      |                            |  
 |      |                            |  
 |      .----------------------------.  
 |     /                            /   
 |    /                            /    
 |   /                            /     
 |  /                            /      
 | /                            /       
 |/                            /        
 *----------------------------*         

Positions:
   0 O      6.000000    6.000000    7.145231    ( 0.0000,  0.0000,  0.0000)
   1 C      6.000000    6.000000    6.004710    ( 0.0000,  0.0000,  0.0000)

Unit cell:
           periodic     x           y           z      points  spacing
  1. axis:    no    12.000000    0.000000    0.000000    60     0.2000
  2. axis:    no     0.000000   12.000000    0.000000    60     0.2000
  3. axis:    no     0.000000    0.000000   13.150340    70     0.1879

  Lengths:  12.000000  12.000000  13.150340
  Angles:   90.000000  90.000000  90.000000

Effective grid spacing dv^(1/3) = 0.1959

                     log10-error:    total        iterations:
           time      wfs    density  energy       fermi  poisson
iter:   1  20:19:28  -5.09   +inf   -14.190764    0             
iter:   2  20:19:28  -6.62  -3.68   -14.190763    0             
iter:   3  20:19:29  -6.46  -3.68   -14.190761    0             
iter:   4  20:19:29  -8.30  -4.20   -14.190761    0             

Converged after 4 iterations.

Dipole moment: (0.000000, -0.000000, 0.041438) |e|*Ang

Energy contributions relative to reference atoms: (reference = -3068.480417)

Kinetic:        +11.175338
Potential:      -14.458311
External:        +0.000000
XC:             -10.872716
Entropy (-ST):   +0.000000
Local:           -0.035072
--------------------------
Free energy:    -14.190761
Extrapolated:   -14.190761

Fermi level: -5.48521

 Band  Eigenvalues  Occupancy
    0    -29.18653    2.00000
    1    -14.08000    2.00000
    2    -11.65595    2.00000
    3    -11.65595    2.00000
    4     -8.95857    2.00000
    5     -2.01185    0.00000
    6     -2.01185    0.00000
    7     -0.22675    0.00000

Gap: 6.947 eV
Transition (v -> c):
  (s=0, k=0, n=4, [0.00, 0.00, 0.00]) -> (s=0, k=0, n=5, [0.00, 0.00, 0.00])

Forces in eV/Ang:
  0 O     0.00000   -0.00000   -0.02109
  1 C    -0.00000   -0.00000    0.00702

System changes: positions 

Initializing position-dependent things.

Density initialized from wave functions
        .----------------------------.  
       /|                            |  
      / |                            |  
     /  |                            |  
    /   |                            |  
   /    |                            |  
  /     |                            |  
 *      |                            |  
 |      |                            |  
 |      |                            |  
 |      |                            |  
 |      |          O                 |  
 |      |          C                 |  
 |      |                            |  
 |      |                            |  
 |      |                            |  
 |      .----------------------------.  
 |     /                            /   
 |    /                            /    
 |   /                            /     
 |  /                            /      
 | /                            /       
 |/                            /        
 *----------------------------*         

Positions:
   0 O      6.000000    6.000000    7.145025    ( 0.0000,  0.0000,  0.0000)
   1 C      6.000000    6.000000    6.004664    ( 0.0000,  0.0000,  0.0000)

Unit cell:
           periodic     x           y           z      points  spacing
  1. axis:    no    12.000000    0.000000    0.000000    60     0.2000
  2. axis:    no     0.000000   12.000000    0.000000    60     0.2000
  3. axis:    no     0.000000    0.000000   13.150340    70     0.1879

  Lengths:  12.000000  12.000000  13.150340
  Angles:   90.000000  90.000000  90.000000

Effective grid spacing dv^(1/3) = 0.1959

                     log10-error:    total        iterations:
           time      wfs    density  energy       fermi  poisson
iter:   1  20:19:30  -6.06   +inf   -14.190763    0             
iter:   2  20:19:30  -7.62  -4.07   -14.190763    0             
iter:   3  20:19:30  -7.20  -4.14   -14.190762    0             
iter:   4  20:19:31  -8.35  -4.54   -14.190762    0             

Converged after 4 iterations.

Dipole moment: (0.000000, -0.000000, 0.041624) |e|*Ang

Energy contributions relative to reference atoms: (reference = -3068.480417)

Kinetic:        +11.196059
Potential:      -14.472919
External:        +0.000000
XC:             -10.876579
Entropy (-ST):   +0.000000
Local:           -0.037324
--------------------------
Free energy:    -14.190762
Extrapolated:   -14.190762

Fermi level: -5.48439

 Band  Eigenvalues  Occupancy
    0    -29.18951    2.00000
    1    -14.08036    2.00000
    2    -11.65800    2.00000
    3    -11.65800    2.00000
    4     -8.95821    2.00000
    5     -2.01056    0.00000
    6     -2.01056    0.00000
    7     -0.22676    0.00000

Gap: 6.948 eV
Transition (v -> c):
  (s=0, k=0, n=4, [0.00, 0.00, 0.00]) -> (s=0, k=0, n=5, [0.00, 0.00, 0.00])

Forces in eV/Ang:
  0 O    -0.00000   -0.00000    0.00076
  1 C    -0.00000    0.00000   -0.01137

Timing:                                      incl.     excl.
-------------------------------------------------------------------
Density initialized from wave functions:     0.296     0.296   0.4% |
 Symmetrize density:                         0.000     0.000   0.0% |
Forces:                                      0.235     0.235   0.3% |
Hamiltonian:                                 1.135     0.038   0.0% |
 Atomic:                                     0.002     0.002   0.0% |
  XC Correction:                             0.000     0.000   0.0% |
 Calculate atomic Hamiltonians:              0.031     0.031   0.0% |
 Communicate:                                0.350     0.350   0.4% |
 Initialize Hamiltonian:                     0.000     0.000   0.0% |
 Poisson:                                    0.005     0.005   0.0% |
 XC 3D grid:                                 0.709     0.709   0.9% |
LCAO initialization:                         0.166     0.119   0.2% |
 LCAO eigensolver:                           0.002     0.000   0.0% |
  Calculate projections:                     0.000     0.000   0.0% |
  DenseAtomicCorrection:                     0.000     0.000   0.0% |
  Distribute overlap matrix:                 0.001     0.001   0.0% |
  Orbital Layouts:                           0.000     0.000   0.0% |
  Potential matrix:                          0.000     0.000   0.0% |
 LCAO to grid:                               0.035     0.035   0.0% |
 Set positions (LCAO WFS):                   0.011     0.006   0.0% |
  Basic WFS set positions:                   0.000     0.000   0.0% |
  Basis functions set positions:             0.000     0.000   0.0% |
  P tci:                                     0.001     0.001   0.0% |
  ST tci:                                    0.001     0.001   0.0% |
  mktci:                                     0.003     0.003   0.0% |
PWDescriptor:                                0.022     0.022   0.0% |
Redistribute:                                0.003     0.003   0.0% |
SCF-cycle:                                  16.065     0.023   0.0% |
 Davidson:                                   2.792     0.300   0.4% |
  Apply H:                                   0.544     0.538   0.7% |
   HMM T:                                    0.005     0.005   0.0% |
  Subspace diag:                             0.628     0.008   0.0% |
   calc_h_matrix:                            0.585     0.023   0.0% |
    Apply H:                                 0.563     0.556   0.7% |
     HMM T:                                  0.006     0.006   0.0% |
   diagonalize:                              0.023     0.023   0.0% |
   rotate_psi:                               0.012     0.012   0.0% |
  calc. matrices:                            1.261     0.159   0.2% |
   Apply H:                                  1.102     1.092   1.4% ||
    HMM T:                                   0.011     0.011   0.0% |
  diagonalize:                               0.042     0.042   0.1% |
  rotate_psi:                                0.018     0.018   0.0% |
 Density:                                    3.309     0.001   0.0% |
  Atomic density matrices:                   0.032     0.032   0.0% |
  Mix:                                       2.827     2.827   3.6% ||
  Multipole moments:                         0.010     0.010   0.0% |
  Pseudo density:                            0.440     0.439   0.6% |
   Symmetrize density:                       0.001     0.001   0.0% |
 Hamiltonian:                                9.931     0.334   0.4% |
  Atomic:                                    0.016     0.016   0.0% |
   XC Correction:                            0.000     0.000   0.0% |
  Calculate atomic Hamiltonians:             0.274     0.274   0.3% |
  Communicate:                               3.055     3.055   3.9% |-|
  Poisson:                                   0.044     0.044   0.1% |
  XC 3D grid:                                6.208     6.208   7.9% |--|
 Orthonormalize:                             0.009     0.001   0.0% |
  calc_s_matrix:                             0.002     0.002   0.0% |
  inverse-cholesky:                          0.002     0.002   0.0% |
  projections:                               0.004     0.004   0.0% |
  rotate_psi_s:                              0.000     0.000   0.0% |
Set symmetry:                                0.001     0.001   0.0% |
Other:                                      61.052    61.052  77.3% |------------------------------|
-------------------------------------------------------------------
Total:                                                78.975 100.0%

Memory usage: 351.38 MiB
Date: Thu Mar 10 20:19:31 2022
                          0.605     0.605   0.8% |
 Initialize Hamiltonian:                     0.000     0.000   0.0% |
 Poisson:                                    0.010     0.010   0.0% |
 XC 3D grid:                                 2.151     2.151   2.7% ||
LCAO initialization:                         0.090     0.037   0.0% |
 LCAO eigensolver:                           0.005     0.000   0.0% |
  Calculate projections:                     0.000     0.000   0.0% |
  DenseAtomicCorrection:                     0.000     0.000   0.0% |
  Distribute overlap matrix:                 0.002     0.002   0.0% |
  Orbital Layouts:                           0.001     0.001   0.0% |
  Potential matrix:                          0.001     0.001   0.0% |
 LCAO to grid:                               0.036     0.036   0.0% |
 Set positions (LCAO WFS):                   0.012     0.006   0.0% |
  Basic WFS set positions:                   0.000     0.000   0.0% |
  Basis functions set positions:             0.000     0.000   0.0% |
  P tci:                                     0.001     0.001   0.0% |
  ST tci:                                    0.002     0.002   0.0% |
  mktci:                                     0.003     0.003   0.0% |
PWDescriptor:                                0.173     0.173   0.2% |
Redistribute:                                0.003     0.003   0.0% |
SCF-cycle:                                  52.321     0.083   0.1% |
 Davidson:                                   4.542     0.612   0.8% |
  Apply H:                                   0.849     0.833   1.1% |
   HMM T:                                    0.016     0.016   0.0% |
  Subspace diag:                             1.019     0.012   0.0% |
   calc_h_matrix:                            0.943     0.038   0.0% |
    Apply H:                                 0.904     0.885   1.1% |
     HMM T:                                  0.019     0.019   0.0% |
   diagonalize:                              0.035     0.035   0.0% |
   rotate_psi:                               0.030     0.030   0.0% |
  calc. matrices:                            1.952     0.260   0.3% |
   Apply H:                                  1.692     1.658   2.1% ||
    HMM T:                                   0.034     0.034   0.0% |
  diagonalize:                               0.061     0.061   0.1% |
  rotate_psi:                                0.048     0.048   0.1% |
 Density:                                    9.338     0.002   0.0% |
  Atomic density matrices:                   0.063     0.063   0.1% |
  Mix:                                       8.482     8.482  10.7% |---|
  Multipole moments:                         0.012     0.012   0.0% |
  Pseudo density:                            0.779     0.777   1.0% |
   Symmetrize density:                       0.002     0.002   0.0% |
 Hamiltonian:                               38.338     0.577   0.7% |
  Atomic:                                    0.026     0.026   0.0% |
   XC Correction:                            0.000     0.000   0.0% |
  Calculate atomic Hamiltonians:             0.761     0.761   1.0% |
  Communicate:                               8.192     8.192  10.4% |---|
  Poisson:                                   0.141     0.141   0.2% |
  XC 3D grid:                               28.641    28.641  36.2% |-------------|
 Orthonormalize:                             0.020     0.001   0.0% |
  calc_s_matrix:                             0.002     0.002   0.0% |
  inverse-cholesky:                          0.003     0.003   0.0% |
  projections:                               0.013     0.013   0.0% |
  rotate_psi_s:                              0.001     0.001   0.0% |
Set symmetry:                                0.001     0.001   0.0% |
Other:                                      22.539    22.539  28.5% |----------|
-------------------------------------------------------------------
Total:                                                79.010 100.0%

Memory usage: 351.38 MiB
Date: Thu Mar 10 20:19:31 2022
