
  ___ ___ ___ _ _ _  
 |   |   |_  | | | | 
 | | | | | . | | | | 
 |__ |  _|___|_____|  19.8.1
 |___|_|             

User:   ermag@vera11-4
Date:   Fri Feb 25 21:51:24 2022
Arch:   x86_64
Pid:    81453
Python: 3.7.2
gpaw:   /apps/Vera/software/GPAW/19.8.1-intel-2019a-Python-3.7.2/lib/python3.7/site-packages/gpaw
_gpaw:  /apps/Vera/software/GPAW/19.8.1-intel-2019a-Python-3.7.2/bin/
        gpaw-python
ase:    /apps/Vera/software/ASE/3.18.0-intel-2019a-Python-3.7.2/lib/python3.7/site-packages/ase (version 3.18.0)
numpy:  /apps/Vera/software/SciPy-bundle/2019.03-intel-2019a/lib/python3.7/site-packages/numpy (version 1.16.2)
scipy:  /apps/Vera/software/SciPy-bundle/2019.03-intel-2019a/lib/python3.7/site-packages/scipy (version 1.2.1)
libxc:  4.3.4
units:  Angstrom and eV
cores:  16

Input parameters:
  h: 0.2
  kpts: [12 12 12]
  mode: {ecut: 450.00000000000006,
         gammacentered: False,
         name: pw}
  xc: PBE

System changes: positions, numbers, cell, pbc, initial_charges, initial_magmoms 

Initialize ...

Pt-setup:
  name: Platinum
  id: 5ed695806aff0c961dba1a84acd7f4b2
  Z: 78
  valence: 16
  core: 62
  charge: 0.0
  file: /apps/Common/software/GPAW-setups/0.9.20000/Pt.PBE.gz
  compensation charges: gauss, rc=0.41, lmax=2
  cutoffs: 2.26(filt), 2.26(core),
  valence states:
                energy  radius
    6s(1.00)    -5.628   1.307
    5p(6.00)   -56.051   1.371
    6p(0.00)    -0.845   1.371
    5d(9.00)    -6.153   1.307
    *s          21.583   1.307
    *d          21.058   1.307

  Using partial waves for Pt as LCAO basis

Reference energy: -500375.362767

Spin-paired calculation

Occupation numbers:
  Fermi-Dirac: width=0.1000 eV

Convergence criteria:
  Maximum total energy change: 0.0005 eV / electron
  Maximum integral of absolute density change: 0.0001 electrons
  Maximum integral of absolute eigenstate change: 4e-08 eV^2
  Maximum number of iterations: 333

Symmetries present (total): 48

  ( 1  0  0)  ( 1  0  0)  ( 1  0  0)  ( 1  0  0)  ( 1  0 -1)  ( 1  0 -1)
  ( 1  0 -1)  ( 1 -1  0)  ( 0  1  0)  ( 0  0  1)  ( 1  0  0)  ( 1 -1  0)
  ( 1 -1  0)  ( 1  0 -1)  ( 0  0  1)  ( 0  1  0)  ( 1 -1  0)  ( 1  0  0)

  ( 1  0 -1)  ( 1  0 -1)  ( 1 -1  0)  ( 1 -1  0)  ( 1 -1  0)  ( 1 -1  0)
  ( 0  1 -1)  ( 0  0 -1)  ( 1  0  0)  ( 1  0 -1)  ( 0 -1  1)  ( 0 -1  0)
  ( 0  0 -1)  ( 0  1 -1)  ( 1  0 -1)  ( 1  0  0)  ( 0 -1  0)  ( 0 -1  1)

  ( 0  1  0)  ( 0  1  0)  ( 0  1  0)  ( 0  1  0)  ( 0  1 -1)  ( 0  1 -1)
  ( 1  0  0)  ( 0  1 -1)  ( 0  0  1)  (-1  1  0)  ( 1  0 -1)  ( 0  1  0)
  ( 0  0  1)  (-1  1  0)  ( 1  0  0)  ( 0  1 -1)  ( 0  0 -1)  (-1  1  0)

  ( 0  1 -1)  ( 0  1 -1)  ( 0  0  1)  ( 0  0  1)  ( 0  0  1)  ( 0  0  1)
  ( 0  0 -1)  (-1  1  0)  ( 1  0  0)  ( 0  1  0)  ( 0 -1  1)  (-1  0  1)
  ( 1  0 -1)  ( 0  1  0)  ( 0  1  0)  ( 1  0  0)  (-1  0  1)  ( 0 -1  1)

  ( 0  0 -1)  ( 0  0 -1)  ( 0  0 -1)  ( 0  0 -1)  ( 0 -1  1)  ( 0 -1  1)
  ( 1  0 -1)  ( 0  1 -1)  ( 0 -1  0)  (-1  0  0)  ( 1 -1  0)  ( 0  0  1)
  ( 0  1 -1)  ( 1  0 -1)  (-1  0  0)  ( 0 -1  0)  ( 0 -1  0)  (-1  0  1)

  ( 0 -1  1)  ( 0 -1  1)  ( 0 -1  0)  ( 0 -1  0)  ( 0 -1  0)  ( 0 -1  0)
  ( 0 -1  0)  (-1  0  1)  ( 1 -1  0)  ( 0  0 -1)  ( 0 -1  1)  (-1  0  0)
  ( 1 -1  0)  ( 0  0  1)  ( 0 -1  1)  (-1  0  0)  ( 1 -1  0)  ( 0  0 -1)

  (-1  1  0)  (-1  1  0)  (-1  1  0)  (-1  1  0)  (-1  0  1)  (-1  0  1)
  ( 0  1  0)  ( 0  1 -1)  (-1  0  1)  (-1  0  0)  ( 0  0  1)  ( 0 -1  1)
  ( 0  1 -1)  ( 0  1  0)  (-1  0  0)  (-1  0  1)  ( 0 -1  1)  ( 0  0  1)

  (-1  0  1)  (-1  0  1)  (-1  0  0)  (-1  0  0)  (-1  0  0)  (-1  0  0)
  (-1  1  0)  (-1  0  0)  ( 0  0 -1)  ( 0 -1  0)  (-1  1  0)  (-1  0  1)
  (-1  0  0)  (-1  1  0)  ( 0 -1  0)  ( 0  0 -1)  (-1  0  1)  (-1  1  0)
Note: your k-points are not as symmetric as your crystal!

1728 k-points: 12 x 12 x 12 Monkhorst-Pack grid
182 k-points in the irreducible part of the Brillouin zone
       k-points in crystal coordinates                weights
   0:     0.04166667    0.04166667   -0.04166667          6/1728
   1:     0.04166667    0.04166667    0.04166667          2/1728
   2:     0.12500000   -0.04166667   -0.04166667          6/1728
   3:     0.12500000    0.04166667   -0.12500000         12/1728
   4:     0.12500000    0.04166667   -0.04166667         12/1728
   5:     0.12500000    0.04166667    0.04166667          6/1728
   6:     0.12500000    0.12500000   -0.12500000          6/1728
   7:     0.12500000    0.12500000   -0.04166667          6/1728
   8:     0.12500000    0.12500000    0.04166667          6/1728
   9:     0.12500000    0.12500000    0.12500000          2/1728
          ...
 181:     0.45833333    0.45833333    0.45833333          2/1728

Wave functions: Plane wave expansion
  Cutoff energy: 450.000 eV
  Number of coefficients (min, max): 276, 297
  Pulay-stress correction: 0.000000 eV/Ang^3 (de/decut=0.000000)
  Using FFTW library
  ScaLapack parameters: grid=1x1, blocksize=None
  Wavefunction extrapolation:
    Improved wavefunction reuse through dual PAW basis 

Eigensolver
   Davidson(niter=2, smin=None, normalize=True) 

Densities:
  Coarse grid: 14*14*14 grid
  Fine grid: 28*28*28 grid
  Total Charge: 0.000000 

Density mixing:
  Method: separate
  Backend: pulay
  Linear mixing parameter: 0.05
  Mixing with 5 old densities
  Damping of long wave oscillations: 50 

Hamiltonian:
  XC and Coulomb potentials evaluated on a 28*28*28 grid
  Using the PBE Exchange-Correlation functional
 

XC parameters: PBE with 2 nearest neighbor stencil

Memory estimate:
  Process memory now: 152.70 MiB
  Calculator: 2.69 MiB
    Density: 1.08 MiB
      Arrays: 0.54 MiB
      Localized functions: 0.32 MiB
      Mixer: 0.21 MiB
    Hamiltonian: 0.36 MiB
      Arrays: 0.36 MiB
      XC: 0.00 MiB
      Poisson: 0.00 MiB
      vbar: 0.01 MiB
    Wavefunctions: 1.26 MiB
      Arrays psit_nG: 0.60 MiB
      Eigensolver: 0.10 MiB
      Projections: 0.04 MiB
      Projectors: 0.37 MiB
      PW-descriptor: 0.15 MiB

Total number of cores used: 16
Parallelization over k-points: 16

Number of atoms: 1
Number of atomic orbitals: 12
Number of bands in calculation: 12
Bands to converge: occupied states only
Number of valence electrons: 16

... initialized

Initializing position-dependent things.

Density initialized from atomic densities
Creating initial wave functions:
  12 bands from LCAO basis set

                
                
                
       Pt       
                
                
                
                

Positions:
   0 Pt     0.000000    0.000000    0.000000    ( 0.0000,  0.0000,  0.0000)

Unit cell:
           periodic     x           y           z      points  spacing
  1. axis:    yes    0.000000    1.876250    1.876250    14     0.1548
  2. axis:    yes    1.876250    0.000000    1.876250    14     0.1548
  3. axis:    yes    1.876250    1.876250    0.000000    14     0.1548

  Lengths:   2.653418   2.653418   2.653418
  Angles:   60.000000  60.000000  60.000000

Effective grid spacing dv^(1/3) = 0.1689

                     log10-error:    total        iterations:
           time      wfs    density  energy       fermi  poisson
iter:   1  21:51:28  +1.90   +inf    -6.426324    3             
iter:   2  21:51:29  -1.54  -1.48    -6.370215    3             
iter:   3  21:51:29  -1.41  -1.50    -6.121724    33            
iter:   4  21:51:29  -2.42  -1.82    -6.028833    31            
iter:   5  21:51:30  -2.46  -2.23    -6.029156    3             
iter:   6  21:51:30  -3.95  -2.46    -6.023154    3             
iter:   7  21:51:31  -4.30  -2.86    -6.021913    3             
iter:   8  21:51:31  -4.07  -3.10    -6.022361    3             
iter:   9  21:51:31  -5.74  -4.12    -6.022363    2             
iter:  10  21:51:32  -7.11  -4.36    -6.022361    2             
iter:  11  21:51:32  -6.85  -4.13    -6.022362    2             
iter:  12  21:51:33  -6.98  -4.39    -6.022363    2             
iter:  13  21:51:33  -7.71  -4.99    -6.022363    1             

Converged after 13 iterations.

Dipole moment: (-0.000000, -0.000000, 0.000000) |e|*Ang

Energy contributions relative to reference atoms: (reference = -500375.362767)

Kinetic:        +17.000847
Potential:      -15.463100
External:        +0.000000
XC:              -6.936886
Entropy (-ST):   -0.044975
Local:           -0.600736
--------------------------
Free energy:     -6.044851
Extrapolated:    -6.022363

Fermi level: 14.97809

Showing only first 2 kpts
 Kpt  Band  Eigenvalues  Occupancy
  0     6     10.45990    0.00694
  0     7     12.76237    0.00694
  0     8     12.99962    0.00694
  0     9     30.24227    0.00000

  1     6     10.34774    0.00231
  1     7     12.93511    0.00231
  1     8     12.93511    0.00231
  1     9     29.88576    0.00000


No gap
System changes: cell 

Initialize ...

Pt-setup:
  name: Platinum
  id: 5ed695806aff0c961dba1a84acd7f4b2
  Z: 78
  valence: 16
  core: 62
  charge: 0.0
  file: /apps/Common/software/GPAW-setups/0.9.20000/Pt.PBE.gz
  compensation charges: gauss, rc=0.41, lmax=2
  cutoffs: 2.26(filt), 2.26(core),
  valence states:
                energy  radius
    6s(1.00)    -5.628   1.307
    5p(6.00)   -56.051   1.371
    6p(0.00)    -0.845   1.371
    5d(9.00)    -6.153   1.307
    *s          21.583   1.307
    *d          21.058   1.307

  Using partial waves for Pt as LCAO basis

Reference energy: -500375.362767

Spin-paired calculation

Occupation numbers:
  Fermi-Dirac: width=0.1000 eV

Convergence criteria:
  Maximum total energy change: 0.0005 eV / electron
  Maximum integral of absolute density change: 0.0001 electrons
  Maximum integral of absolute eigenstate change: 4e-08 eV^2
  Maximum number of iterations: 333

Symmetries present (total): 48

  ( 1  0  0)  ( 1  0  0)  ( 1  0  0)  ( 1  0  0)  ( 1  0 -1)  ( 1  0 -1)
  ( 1  0 -1)  ( 1 -1  0)  ( 0  1  0)  ( 0  0  1)  ( 1  0  0)  ( 1 -1  0)
  ( 1 -1  0)  ( 1  0 -1)  ( 0  0  1)  ( 0  1  0)  ( 1 -1  0)  ( 1  0  0)

  ( 1  0 -1)  ( 1  0 -1)  ( 1 -1  0)  ( 1 -1  0)  ( 1 -1  0)  ( 1 -1  0)
  ( 0  1 -1)  ( 0  0 -1)  ( 1  0  0)  ( 1  0 -1)  ( 0 -1  1)  ( 0 -1  0)
  ( 0  0 -1)  ( 0  1 -1)  ( 1  0 -1)  ( 1  0  0)  ( 0 -1  0)  ( 0 -1  1)

  ( 0  1  0)  ( 0  1  0)  ( 0  1  0)  ( 0  1  0)  ( 0  1 -1)  ( 0  1 -1)
  ( 1  0  0)  ( 0  1 -1)  ( 0  0  1)  (-1  1  0)  ( 1  0 -1)  ( 0  1  0)
  ( 0  0  1)  (-1  1  0)  ( 1  0  0)  ( 0  1 -1)  ( 0  0 -1)  (-1  1  0)

  ( 0  1 -1)  ( 0  1 -1)  ( 0  0  1)  ( 0  0  1)  ( 0  0  1)  ( 0  0  1)
  ( 0  0 -1)  (-1  1  0)  ( 1  0  0)  ( 0  1  0)  ( 0 -1  1)  (-1  0  1)
  ( 1  0 -1)  ( 0  1  0)  ( 0  1  0)  ( 1  0  0)  (-1  0  1)  ( 0 -1  1)

  ( 0  0 -1)  ( 0  0 -1)  ( 0  0 -1)  ( 0  0 -1)  ( 0 -1  1)  ( 0 -1  1)
  ( 1  0 -1)  ( 0  1 -1)  ( 0 -1  0)  (-1  0  0)  ( 1 -1  0)  ( 0  0  1)
  ( 0  1 -1)  ( 1  0 -1)  (-1  0  0)  ( 0 -1  0)  ( 0 -1  0)  (-1  0  1)

  ( 0 -1  1)  ( 0 -1  1)  ( 0 -1  0)  ( 0 -1  0)  ( 0 -1  0)  ( 0 -1  0)
  ( 0 -1  0)  (-1  0  1)  ( 1 -1  0)  ( 0  0 -1)  ( 0 -1  1)  (-1  0  0)
  ( 1 -1  0)  ( 0  0  1)  ( 0 -1  1)  (-1  0  0)  ( 1 -1  0)  ( 0  0 -1)

  (-1  1  0)  (-1  1  0)  (-1  1  0)  (-1  1  0)  (-1  0  1)  (-1  0  1)
  ( 0  1  0)  ( 0  1 -1)  (-1  0  1)  (-1  0  0)  ( 0  0  1)  ( 0 -1  1)
  ( 0  1 -1)  ( 0  1  0)  (-1  0  0)  (-1  0  1)  ( 0 -1  1)  ( 0  0  1)

  (-1  0  1)  (-1  0  1)  (-1  0  0)  (-1  0  0)  (-1  0  0)  (-1  0  0)
  (-1  1  0)  (-1  0  0)  ( 0  0 -1)  ( 0 -1  0)  (-1  1  0)  (-1  0  1)
  (-1  0  0)  (-1  1  0)  ( 0 -1  0)  ( 0  0 -1)  (-1  0  1)  (-1  1  0)
Note: your k-points are not as symmetric as your crystal!

1728 k-points: 12 x 12 x 12 Monkhorst-Pack grid
182 k-points in the irreducible part of the Brillouin zone
       k-points in crystal coordinates                weights
   0:     0.04166667    0.04166667   -0.04166667          6/1728
   1:     0.04166667    0.04166667    0.04166667          2/1728
   2:     0.12500000   -0.04166667   -0.04166667          6/1728
   3:     0.12500000    0.04166667   -0.12500000         12/1728
   4:     0.12500000    0.04166667   -0.04166667         12/1728
   5:     0.12500000    0.04166667    0.04166667          6/1728
   6:     0.12500000    0.12500000   -0.12500000          6/1728
   7:     0.12500000    0.12500000   -0.04166667          6/1728
   8:     0.12500000    0.12500000    0.04166667          6/1728
   9:     0.12500000    0.12500000    0.12500000          2/1728
          ...
 181:     0.45833333    0.45833333    0.45833333          2/1728

Wave functions: Plane wave expansion
  Cutoff energy: 450.000 eV
  Number of coefficients (min, max): 280, 298
  Pulay-stress correction: 0.000000 eV/Ang^3 (de/decut=0.000000)
  Using FFTW library
  ScaLapack parameters: grid=1x1, blocksize=None
  Wavefunction extrapolation:
    Improved wavefunction reuse through dual PAW basis 

Eigensolver
   Davidson(niter=2, smin=None, normalize=True) 

Densities:
  Coarse grid: 14*14*14 grid
  Fine grid: 28*28*28 grid
  Total Charge: 0.000000 

Density mixing:
  Method: separate
  Backend: pulay
  Linear mixing parameter: 0.05
  Mixing with 5 old densities
  Damping of long wave oscillations: 50 

Hamiltonian:
  XC and Coulomb potentials evaluated on a 28*28*28 grid
  Using the PBE Exchange-Correlation functional
 

XC parameters: PBE with 2 nearest neighbor stencil

Memory estimate:
  Process memory now: 152.70 MiB
  Calculator: 2.70 MiB
    Density: 1.08 MiB
      Arrays: 0.54 MiB
      Localized functions: 0.32 MiB
      Mixer: 0.21 MiB
    Hamiltonian: 0.36 MiB
      Arrays: 0.36 MiB
      XC: 0.00 MiB
      Poisson: 0.00 MiB
      vbar: 0.01 MiB
    Wavefunctions: 1.26 MiB
      Arrays psit_nG: 0.60 MiB
      Eigensolver: 0.10 MiB
      Projections: 0.04 MiB
      Projectors: 0.37 MiB
      PW-descriptor: 0.15 MiB

Total number of cores used: 16
Parallelization over k-points: 16

Number of atoms: 1
Number of atomic orbitals: 12
Number of bands in calculation: 12
Bands to converge: occupied states only
Number of valence electrons: 16

... initialized

Initializing position-dependent things.

Density initialized from atomic densities
Creating initial wave functions:
  12 bands from LCAO basis set

                
                
                
       Pt       
                
                
                
                

Positions:
   0 Pt     0.000000    0.000000    0.000000    ( 0.0000,  0.0000,  0.0000)

Unit cell:
           periodic     x           y           z      points  spacing
  1. axis:    yes    0.000000    1.880281    1.880281    14     0.1551
  2. axis:    yes    1.880281    0.000000    1.880281    14     0.1551
  3. axis:    yes    1.880281    1.880281    0.000000    14     0.1551

  Lengths:   2.659118   2.659118   2.659118
  Angles:   60.000000  60.000000  60.000000

Effective grid spacing dv^(1/3) = 0.1692

                     log10-error:    total        iterations:
           time      wfs    density  energy       fermi  poisson
iter:   1  21:51:37  +1.90   +inf    -6.460373    3             
iter:   2  21:51:38  -1.54  -1.48    -6.403915    3             
iter:   3  21:51:38  -1.41  -1.50    -6.155602    33            
iter:   4  21:51:38  -2.42  -1.82    -6.062096    27            
iter:   5  21:51:39  -2.47  -2.23    -6.062291    3             
iter:   6  21:51:39  -3.97  -2.46    -6.056709    3             
iter:   7  21:51:40  -4.28  -2.86    -6.055421    3             
iter:   8  21:51:40  -4.08  -3.11    -6.055856    3             
iter:   9  21:51:40  -5.75  -4.12    -6.055858    2             
iter:  10  21:51:41  -7.05  -4.36    -6.055855    2             
iter:  11  21:51:41  -6.67  -4.09    -6.055858    2             
iter:  12  21:51:42  -6.88  -4.45    -6.055858    2             
iter:  13  21:51:42  -8.10  -5.30    -6.055858    1             

Converged after 13 iterations.

Dipole moment: (0.000000, -0.000000, -0.000000) |e|*Ang

Energy contributions relative to reference atoms: (reference = -500375.362767)

Kinetic:        +15.779940
Potential:      -14.424957
External:        +0.000000
XC:              -6.791643
Entropy (-ST):   -0.045411
Local:           -0.596493
--------------------------
Free energy:     -6.078564
Extrapolated:    -6.055858

Fermi level: 14.83048

Showing only first 2 kpts
 Kpt  Band  Eigenvalues  Occupancy
  0     6     10.35910    0.00694
  0     7     12.63813    0.00694
  0     8     12.87260    0.00694
  0     9     30.11022    0.00000

  1     6     10.24803    0.00231
  1     7     12.80875    0.00231
  1     8     12.80875    0.00231
  1     9     29.75735    0.00000


No gap
System changes: cell 

Initialize ...

Pt-setup:
  name: Platinum
  id: 5ed695806aff0c961dba1a84acd7f4b2
  Z: 78
  valence: 16
  core: 62
  charge: 0.0
  file: /apps/Common/software/GPAW-setups/0.9.20000/Pt.PBE.gz
  compensation charges: gauss, rc=0.41, lmax=2
  cutoffs: 2.26(filt), 2.26(core),
  valence states:
                energy  radius
    6s(1.00)    -5.628   1.307
    5p(6.00)   -56.051   1.371
    6p(0.00)    -0.845   1.371
    5d(9.00)    -6.153   1.307
    *s          21.583   1.307
    *d          21.058   1.307

  Using partial waves for Pt as LCAO basis

Reference energy: -500375.362767

Spin-paired calculation

Occupation numbers:
  Fermi-Dirac: width=0.1000 eV

Convergence criteria:
  Maximum total energy change: 0.0005 eV / electron
  Maximum integral of absolute density change: 0.0001 electrons
  Maximum integral of absolute eigenstate change: 4e-08 eV^2
  Maximum number of iterations: 333

Symmetries present (total): 48

  ( 1  0  0)  ( 1  0  0)  ( 1  0  0)  ( 1  0  0)  ( 1  0 -1)  ( 1  0 -1)
  ( 1  0 -1)  ( 1 -1  0)  ( 0  1  0)  ( 0  0  1)  ( 1  0  0)  ( 1 -1  0)
  ( 1 -1  0)  ( 1  0 -1)  ( 0  0  1)  ( 0  1  0)  ( 1 -1  0)  ( 1  0  0)

  ( 1  0 -1)  ( 1  0 -1)  ( 1 -1  0)  ( 1 -1  0)  ( 1 -1  0)  ( 1 -1  0)
  ( 0  1 -1)  ( 0  0 -1)  ( 1  0  0)  ( 1  0 -1)  ( 0 -1  1)  ( 0 -1  0)
  ( 0  0 -1)  ( 0  1 -1)  ( 1  0 -1)  ( 1  0  0)  ( 0 -1  0)  ( 0 -1  1)

  ( 0  1  0)  ( 0  1  0)  ( 0  1  0)  ( 0  1  0)  ( 0  1 -1)  ( 0  1 -1)
  ( 1  0  0)  ( 0  1 -1)  ( 0  0  1)  (-1  1  0)  ( 1  0 -1)  ( 0  1  0)
  ( 0  0  1)  (-1  1  0)  ( 1  0  0)  ( 0  1 -1)  ( 0  0 -1)  (-1  1  0)

  ( 0  1 -1)  ( 0  1 -1)  ( 0  0  1)  ( 0  0  1)  ( 0  0  1)  ( 0  0  1)
  ( 0  0 -1)  (-1  1  0)  ( 1  0  0)  ( 0  1  0)  ( 0 -1  1)  (-1  0  1)
  ( 1  0 -1)  ( 0  1  0)  ( 0  1  0)  ( 1  0  0)  (-1  0  1)  ( 0 -1  1)

  ( 0  0 -1)  ( 0  0 -1)  ( 0  0 -1)  ( 0  0 -1)  ( 0 -1  1)  ( 0 -1  1)
  ( 1  0 -1)  ( 0  1 -1)  ( 0 -1  0)  (-1  0  0)  ( 1 -1  0)  ( 0  0  1)
  ( 0  1 -1)  ( 1  0 -1)  (-1  0  0)  ( 0 -1  0)  ( 0 -1  0)  (-1  0  1)

  ( 0 -1  1)  ( 0 -1  1)  ( 0 -1  0)  ( 0 -1  0)  ( 0 -1  0)  ( 0 -1  0)
  ( 0 -1  0)  (-1  0  1)  ( 1 -1  0)  ( 0  0 -1)  ( 0 -1  1)  (-1  0  0)
  ( 1 -1  0)  ( 0  0  1)  ( 0 -1  1)  (-1  0  0)  ( 1 -1  0)  ( 0  0 -1)

  (-1  1  0)  (-1  1  0)  (-1  1  0)  (-1  1  0)  (-1  0  1)  (-1  0  1)
  ( 0  1  0)  ( 0  1 -1)  (-1  0  1)  (-1  0  0)  ( 0  0  1)  ( 0 -1  1)
  ( 0  1 -1)  ( 0  1  0)  (-1  0  0)  (-1  0  1)  ( 0 -1  1)  ( 0  0  1)

  (-1  0  1)  (-1  0  1)  (-1  0  0)  (-1  0  0)  (-1  0  0)  (-1  0  0)
  (-1  1  0)  (-1  0  0)  ( 0  0 -1)  ( 0 -1  0)  (-1  1  0)  (-1  0  1)
  (-1  0  0)  (-1  1  0)  ( 0 -1  0)  ( 0  0 -1)  (-1  0  1)  (-1  1  0)
Note: your k-points are not as symmetric as your crystal!

1728 k-points: 12 x 12 x 12 Monkhorst-Pack grid
182 k-points in the irreducible part of the Brillouin zone
       k-points in crystal coordinates                weights
   0:     0.04166667    0.04166667   -0.04166667          6/1728
   1:     0.04166667    0.04166667    0.04166667          2/1728
   2:     0.12500000   -0.04166667   -0.04166667          6/1728
   3:     0.12500000    0.04166667   -0.12500000         12/1728
   4:     0.12500000    0.04166667   -0.04166667         12/1728
   5:     0.12500000    0.04166667    0.04166667          6/1728
   6:     0.12500000    0.12500000   -0.12500000          6/1728
   7:     0.12500000    0.12500000   -0.04166667          6/1728
   8:     0.12500000    0.12500000    0.04166667          6/1728
   9:     0.12500000    0.12500000    0.12500000          2/1728
          ...
 181:     0.45833333    0.45833333    0.45833333          2/1728

Wave functions: Plane wave expansion
  Cutoff energy: 450.000 eV
  Number of coefficients (min, max): 281, 299
  Pulay-stress correction: 0.000000 eV/Ang^3 (de/decut=0.000000)
  Using FFTW library
  ScaLapack parameters: grid=1x1, blocksize=None
  Wavefunction extrapolation:
    Improved wavefunction reuse through dual PAW basis 

Eigensolver
   Davidson(niter=2, smin=None, normalize=True) 

Densities:
  Coarse grid: 14*14*14 grid
  Fine grid: 28*28*28 grid
  Total Charge: 0.000000 

Density mixing:
  Method: separate
  Backend: pulay
  Linear mixing parameter: 0.05
  Mixing with 5 old densities
  Damping of long wave oscillations: 50 

Hamiltonian:
  XC and Coulomb potentials evaluated on a 28*28*28 grid
  Using the PBE Exchange-Correlation functional
 

XC parameters: PBE with 2 nearest neighbor stencil

Memory estimate:
  Process memory now: 152.70 MiB
  Calculator: 2.71 MiB
    Density: 1.08 MiB
      Arrays: 0.54 MiB
      Localized functions: 0.33 MiB
      Mixer: 0.21 MiB
    Hamiltonian: 0.36 MiB
      Arrays: 0.36 MiB
      XC: 0.00 MiB
      Poisson: 0.00 MiB
      vbar: 0.01 MiB
    Wavefunctions: 1.26 MiB
      Arrays psit_nG: 0.60 MiB
      Eigensolver: 0.10 MiB
      Projections: 0.04 MiB
      Projectors: 0.37 MiB
      PW-descriptor: 0.15 MiB

Total number of cores used: 16
Parallelization over k-points: 16

Number of atoms: 1
Number of atomic orbitals: 12
Number of bands in calculation: 12
Bands to converge: occupied states only
Number of valence electrons: 16

... initialized

Initializing position-dependent things.

Density initialized from atomic densities
Creating initial wave functions:
  12 bands from LCAO basis set

                
                
                
       Pt       
                
                
                
                

Positions:
   0 Pt     0.000000    0.000000    0.000000    ( 0.0000,  0.0000,  0.0000)

Unit cell:
           periodic     x           y           z      points  spacing
  1. axis:    yes    0.000000    1.884311    1.884311    14     0.1554
  2. axis:    yes    1.884311    0.000000    1.884311    14     0.1554
  3. axis:    yes    1.884311    1.884311    0.000000    14     0.1554

  Lengths:   2.664818   2.664818   2.664818
  Angles:   60.000000  60.000000  60.000000

Effective grid spacing dv^(1/3) = 0.1696

                     log10-error:    total        iterations:
           time      wfs    density  energy       fermi  poisson
iter:   1  21:51:46  +1.90   +inf    -6.492720    3             
iter:   2  21:51:47  -1.54  -1.48    -6.435914    3             
iter:   3  21:51:47  -1.40  -1.50    -6.187768    32            
iter:   4  21:51:48  -2.42  -1.82    -6.093703    32            
iter:   5  21:51:48  -2.48  -2.23    -6.093775    3             
iter:   6  21:51:48  -3.99  -2.47    -6.088585    3             
iter:   7  21:51:49  -4.27  -2.85    -6.087261    3             
iter:   8  21:51:49  -4.09  -3.11    -6.087684    3             
iter:   9  21:51:50  -5.78  -4.12    -6.087686    2             
iter:  10  21:51:50  -6.96  -4.36    -6.087683    2             
iter:  11  21:51:50  -6.57  -4.05    -6.087685    2             
iter:  12  21:51:51  -6.93  -4.48    -6.087686    2             
iter:  13  21:51:51  -8.26  -5.36    -6.087686    1             

Converged after 13 iterations.

Dipole moment: (-0.000000, -0.000000, -0.000000) |e|*Ang

Energy contributions relative to reference atoms: (reference = -500375.362767)

Kinetic:        +14.579758
Potential:      -13.403666
External:        +0.000000
XC:              -6.648402
Entropy (-ST):   -0.045849
Local:           -0.592451
--------------------------
Free energy:     -6.110611
Extrapolated:    -6.087686

Fermi level: 14.68411

Showing only first 2 kpts
 Kpt  Band  Eigenvalues  Occupancy
  0     6     10.25889    0.00694
  0     7     12.51491    0.00694
  0     8     12.74655    0.00694
  0     9     29.97896    0.00000

  1     6     10.14901    0.00231
  1     7     12.68337    0.00231
  1     8     12.68337    0.00231
  1     9     29.62980    0.00000


No gap
System changes: cell 

Initialize ...

Pt-setup:
  name: Platinum
  id: 5ed695806aff0c961dba1a84acd7f4b2
  Z: 78
  valence: 16
  core: 62
  charge: 0.0
  file: /apps/Common/software/GPAW-setups/0.9.20000/Pt.PBE.gz
  compensation charges: gauss, rc=0.41, lmax=2
  cutoffs: 2.26(filt), 2.26(core),
  valence states:
                energy  radius
    6s(1.00)    -5.628   1.307
    5p(6.00)   -56.051   1.371
    6p(0.00)    -0.845   1.371
    5d(9.00)    -6.153   1.307
    *s          21.583   1.307
    *d          21.058   1.307

  Using partial waves for Pt as LCAO basis

Reference energy: -500375.362767

Spin-paired calculation

Occupation numbers:
  Fermi-Dirac: width=0.1000 eV

Convergence criteria:
  Maximum total energy change: 0.0005 eV / electron
  Maximum integral of absolute density change: 0.0001 electrons
  Maximum integral of absolute eigenstate change: 4e-08 eV^2
  Maximum number of iterations: 333

Symmetries present (total): 48

  ( 1  0  0)  ( 1  0  0)  ( 1  0  0)  ( 1  0  0)  ( 1  0 -1)  ( 1  0 -1)
  ( 1  0 -1)  ( 1 -1  0)  ( 0  1  0)  ( 0  0  1)  ( 1  0  0)  ( 1 -1  0)
  ( 1 -1  0)  ( 1  0 -1)  ( 0  0  1)  ( 0  1  0)  ( 1 -1  0)  ( 1  0  0)

  ( 1  0 -1)  ( 1  0 -1)  ( 1 -1  0)  ( 1 -1  0)  ( 1 -1  0)  ( 1 -1  0)
  ( 0  1 -1)  ( 0  0 -1)  ( 1  0  0)  ( 1  0 -1)  ( 0 -1  1)  ( 0 -1  0)
  ( 0  0 -1)  ( 0  1 -1)  ( 1  0 -1)  ( 1  0  0)  ( 0 -1  0)  ( 0 -1  1)

  ( 0  1  0)  ( 0  1  0)  ( 0  1  0)  ( 0  1  0)  ( 0  1 -1)  ( 0  1 -1)
  ( 1  0  0)  ( 0  1 -1)  ( 0  0  1)  (-1  1  0)  ( 1  0 -1)  ( 0  1  0)
  ( 0  0  1)  (-1  1  0)  ( 1  0  0)  ( 0  1 -1)  ( 0  0 -1)  (-1  1  0)

  ( 0  1 -1)  ( 0  1 -1)  ( 0  0  1)  ( 0  0  1)  ( 0  0  1)  ( 0  0  1)
  ( 0  0 -1)  (-1  1  0)  ( 1  0  0)  ( 0  1  0)  ( 0 -1  1)  (-1  0  1)
  ( 1  0 -1)  ( 0  1  0)  ( 0  1  0)  ( 1  0  0)  (-1  0  1)  ( 0 -1  1)

  ( 0  0 -1)  ( 0  0 -1)  ( 0  0 -1)  ( 0  0 -1)  ( 0 -1  1)  ( 0 -1  1)
  ( 1  0 -1)  ( 0  1 -1)  ( 0 -1  0)  (-1  0  0)  ( 1 -1  0)  ( 0  0  1)
  ( 0  1 -1)  ( 1  0 -1)  (-1  0  0)  ( 0 -1  0)  ( 0 -1  0)  (-1  0  1)

  ( 0 -1  1)  ( 0 -1  1)  ( 0 -1  0)  ( 0 -1  0)  ( 0 -1  0)  ( 0 -1  0)
  ( 0 -1  0)  (-1  0  1)  ( 1 -1  0)  ( 0  0 -1)  ( 0 -1  1)  (-1  0  0)
  ( 1 -1  0)  ( 0  0  1)  ( 0 -1  1)  (-1  0  0)  ( 1 -1  0)  ( 0  0 -1)

  (-1  1  0)  (-1  1  0)  (-1  1  0)  (-1  1  0)  (-1  0  1)  (-1  0  1)
  ( 0  1  0)  ( 0  1 -1)  (-1  0  1)  (-1  0  0)  ( 0  0  1)  ( 0 -1  1)
  ( 0  1 -1)  ( 0  1  0)  (-1  0  0)  (-1  0  1)  ( 0 -1  1)  ( 0  0  1)

  (-1  0  1)  (-1  0  1)  (-1  0  0)  (-1  0  0)  (-1  0  0)  (-1  0  0)
  (-1  1  0)  (-1  0  0)  ( 0  0 -1)  ( 0 -1  0)  (-1  1  0)  (-1  0  1)
  (-1  0  0)  (-1  1  0)  ( 0 -1  0)  ( 0  0 -1)  (-1  0  1)  (-1  1  0)
Note: your k-points are not as symmetric as your crystal!

1728 k-points: 12 x 12 x 12 Monkhorst-Pack grid
182 k-points in the irreducible part of the Brillouin zone
       k-points in crystal coordinates                weights
   0:     0.04166667    0.04166667   -0.04166667          6/1728
   1:     0.04166667    0.04166667    0.04166667          2/1728
   2:     0.12500000   -0.04166667   -0.04166667          6/1728
   3:     0.12500000    0.04166667   -0.12500000         12/1728
   4:     0.12500000    0.04166667   -0.04166667         12/1728
   5:     0.12500000    0.04166667    0.04166667          6/1728
   6:     0.12500000    0.12500000   -0.12500000          6/1728
   7:     0.12500000    0.12500000   -0.04166667          6/1728
   8:     0.12500000    0.12500000    0.04166667          6/1728
   9:     0.12500000    0.12500000    0.12500000          2/1728
          ...
 181:     0.45833333    0.45833333    0.45833333          2/1728

Wave functions: Plane wave expansion
  Cutoff energy: 450.000 eV
  Number of coefficients (min, max): 284, 303
  Pulay-stress correction: 0.000000 eV/Ang^3 (de/decut=0.000000)
  Using FFTW library
  ScaLapack parameters: grid=1x1, blocksize=None
  Wavefunction extrapolation:
    Improved wavefunction reuse through dual PAW basis 

Eigensolver
   Davidson(niter=2, smin=None, normalize=True) 

Densities:
  Coarse grid: 14*14*14 grid
  Fine grid: 28*28*28 grid
  Total Charge: 0.000000 

Density mixing:
  Method: separate
  Backend: pulay
  Linear mixing parameter: 0.05
  Mixing with 5 old densities
  Damping of long wave oscillations: 50 

Hamiltonian:
  XC and Coulomb potentials evaluated on a 28*28*28 grid
  Using the PBE Exchange-Correlation functional
 

XC parameters: PBE with 2 nearest neighbor stencil

Memory estimate:
  Process memory now: 152.70 MiB
  Calculator: 2.73 MiB
    Density: 1.09 MiB
      Arrays: 0.54 MiB
      Localized functions: 0.33 MiB
      Mixer: 0.21 MiB
    Hamiltonian: 0.36 MiB
      Arrays: 0.36 MiB
      XC: 0.00 MiB
      Poisson: 0.00 MiB
      vbar: 0.01 MiB
    Wavefunctions: 1.28 MiB
      Arrays psit_nG: 0.61 MiB
      Eigensolver: 0.10 MiB
      Projections: 0.04 MiB
      Projectors: 0.37 MiB
      PW-descriptor: 0.16 MiB

Total number of cores used: 16
Parallelization over k-points: 16

Number of atoms: 1
Number of atomic orbitals: 12
Number of bands in calculation: 12
Bands to converge: occupied states only
Number of valence electrons: 16

... initialized

Initializing position-dependent things.

Density initialized from atomic densities
Creating initial wave functions:
  12 bands from LCAO basis set

                
                
                
       Pt       
                
                
                
                

Positions:
   0 Pt     0.000000    0.000000    0.000000    ( 0.0000,  0.0000,  0.0000)

Unit cell:
           periodic     x           y           z      points  spacing
  1. axis:    yes    0.000000    1.888342    1.888342    14     0.1557
  2. axis:    yes    1.888342    0.000000    1.888342    14     0.1557
  3. axis:    yes    1.888342    1.888342    0.000000    14     0.1557

  Lengths:   2.670519   2.670519   2.670519
  Angles:   60.000000  60.000000  60.000000

Effective grid spacing dv^(1/3) = 0.1699

                     log10-error:    total        iterations:
           time      wfs    density  energy       fermi  poisson
iter:   1  21:51:56  +1.90   +inf    -6.523379    3             
iter:   2  21:51:56  -1.53  -1.47    -6.466219    3             
iter:   3  21:51:57  -1.40  -1.50    -6.218374    33            
iter:   4  21:51:57  -2.42  -1.82    -6.123656    32            
iter:   5  21:51:57  -2.49  -2.23    -6.123589    3             
iter:   6  21:51:58  -4.01  -2.48    -6.118792    3             
iter:   7  21:51:58  -4.26  -2.84    -6.117434    3             
iter:   8  21:51:59  -4.10  -3.11    -6.117845    3             
iter:   9  21:51:59  -5.80  -4.12    -6.117847    2             
iter:  10  21:51:59  -6.87  -4.36    -6.117844    2             
iter:  11  21:52:00  -6.50  -4.02    -6.117846    2             
iter:  12  21:52:00  -6.96  -4.48    -6.117847    2             
iter:  13  21:52:00  -8.31  -5.36    -6.117847    1             

Converged after 13 iterations.

Dipole moment: (0.000000, 0.000000, 0.000000) |e|*Ang

Energy contributions relative to reference atoms: (reference = -500375.362767)

Kinetic:        +13.406122
Potential:      -12.404825
External:        +0.000000
XC:              -6.507400
Entropy (-ST):   -0.046286
Local:           -0.588601
--------------------------
Free energy:     -6.140990
Extrapolated:    -6.117847

Fermi level: 14.53901

Showing only first 2 kpts
 Kpt  Band  Eigenvalues  Occupancy
  0     6     10.15941    0.00694
  0     7     12.39254    0.00694
  0     8     12.62154    0.00694
  0     9     29.84848    0.00000

  1     6     10.05045    0.00231
  1     7     12.55895    0.00231
  1     8     12.55895    0.00231
  1     9     29.50304    0.00000


No gap
System changes: cell 

Initialize ...

Pt-setup:
  name: Platinum
  id: 5ed695806aff0c961dba1a84acd7f4b2
  Z: 78
  valence: 16
  core: 62
  charge: 0.0
  file: /apps/Common/software/GPAW-setups/0.9.20000/Pt.PBE.gz
  compensation charges: gauss, rc=0.41, lmax=2
  cutoffs: 2.26(filt), 2.26(core),
  valence states:
                energy  radius
    6s(1.00)    -5.628   1.307
    5p(6.00)   -56.051   1.371
    6p(0.00)    -0.845   1.371
    5d(9.00)    -6.153   1.307
    *s          21.583   1.307
    *d          21.058   1.307

  Using partial waves for Pt as LCAO basis

Reference energy: -500375.362767

Spin-paired calculation

Occupation numbers:
  Fermi-Dirac: width=0.1000 eV

Convergence criteria:
  Maximum total energy change: 0.0005 eV / electron
  Maximum integral of absolute density change: 0.0001 electrons
  Maximum integral of absolute eigenstate change: 4e-08 eV^2
  Maximum number of iterations: 333

Symmetries present (total): 48

  ( 1  0  0)  ( 1  0  0)  ( 1  0  0)  ( 1  0  0)  ( 1  0 -1)  ( 1  0 -1)
  ( 1  0 -1)  ( 1 -1  0)  ( 0  1  0)  ( 0  0  1)  ( 1  0  0)  ( 1 -1  0)
  ( 1 -1  0)  ( 1  0 -1)  ( 0  0  1)  ( 0  1  0)  ( 1 -1  0)  ( 1  0  0)

  ( 1  0 -1)  ( 1  0 -1)  ( 1 -1  0)  ( 1 -1  0)  ( 1 -1  0)  ( 1 -1  0)
  ( 0  1 -1)  ( 0  0 -1)  ( 1  0  0)  ( 1  0 -1)  ( 0 -1  1)  ( 0 -1  0)
  ( 0  0 -1)  ( 0  1 -1)  ( 1  0 -1)  ( 1  0  0)  ( 0 -1  0)  ( 0 -1  1)

  ( 0  1  0)  ( 0  1  0)  ( 0  1  0)  ( 0  1  0)  ( 0  1 -1)  ( 0  1 -1)
  ( 1  0  0)  ( 0  1 -1)  ( 0  0  1)  (-1  1  0)  ( 1  0 -1)  ( 0  1  0)
  ( 0  0  1)  (-1  1  0)  ( 1  0  0)  ( 0  1 -1)  ( 0  0 -1)  (-1  1  0)

  ( 0  1 -1)  ( 0  1 -1)  ( 0  0  1)  ( 0  0  1)  ( 0  0  1)  ( 0  0  1)
  ( 0  0 -1)  (-1  1  0)  ( 1  0  0)  ( 0  1  0)  ( 0 -1  1)  (-1  0  1)
  ( 1  0 -1)  ( 0  1  0)  ( 0  1  0)  ( 1  0  0)  (-1  0  1)  ( 0 -1  1)

  ( 0  0 -1)  ( 0  0 -1)  ( 0  0 -1)  ( 0  0 -1)  ( 0 -1  1)  ( 0 -1  1)
  ( 1  0 -1)  ( 0  1 -1)  ( 0 -1  0)  (-1  0  0)  ( 1 -1  0)  ( 0  0  1)
  ( 0  1 -1)  ( 1  0 -1)  (-1  0  0)  ( 0 -1  0)  ( 0 -1  0)  (-1  0  1)

  ( 0 -1  1)  ( 0 -1  1)  ( 0 -1  0)  ( 0 -1  0)  ( 0 -1  0)  ( 0 -1  0)
  ( 0 -1  0)  (-1  0  1)  ( 1 -1  0)  ( 0  0 -1)  ( 0 -1  1)  (-1  0  0)
  ( 1 -1  0)  ( 0  0  1)  ( 0 -1  1)  (-1  0  0)  ( 1 -1  0)  ( 0  0 -1)

  (-1  1  0)  (-1  1  0)  (-1  1  0)  (-1  1  0)  (-1  0  1)  (-1  0  1)
  ( 0  1  0)  ( 0  1 -1)  (-1  0  1)  (-1  0  0)  ( 0  0  1)  ( 0 -1  1)
  ( 0  1 -1)  ( 0  1  0)  (-1  0  0)  (-1  0  1)  ( 0 -1  1)  ( 0  0  1)

  (-1  0  1)  (-1  0  1)  (-1  0  0)  (-1  0  0)  (-1  0  0)  (-1  0  0)
  (-1  1  0)  (-1  0  0)  ( 0  0 -1)  ( 0 -1  0)  (-1  1  0)  (-1  0  1)
  (-1  0  0)  (-1  1  0)  ( 0 -1  0)  ( 0  0 -1)  (-1  0  1)  (-1  1  0)
Note: your k-points are not as symmetric as your crystal!

1728 k-points: 12 x 12 x 12 Monkhorst-Pack grid
182 k-points in the irreducible part of the Brillouin zone
       k-points in crystal coordinates                weights
   0:     0.04166667    0.04166667   -0.04166667          6/1728
   1:     0.04166667    0.04166667    0.04166667          2/1728
   2:     0.12500000   -0.04166667   -0.04166667          6/1728
   3:     0.12500000    0.04166667   -0.12500000         12/1728
   4:     0.12500000    0.04166667   -0.04166667         12/1728
   5:     0.12500000    0.04166667    0.04166667          6/1728
   6:     0.12500000    0.12500000   -0.12500000          6/1728
   7:     0.12500000    0.12500000   -0.04166667          6/1728
   8:     0.12500000    0.12500000    0.04166667          6/1728
   9:     0.12500000    0.12500000    0.12500000          2/1728
          ...
 181:     0.45833333    0.45833333    0.45833333          2/1728

Wave functions: Plane wave expansion
  Cutoff energy: 450.000 eV
  Number of coefficients (min, max): 284, 305
  Pulay-stress correction: 0.000000 eV/Ang^3 (de/decut=0.000000)
  Using FFTW library
  ScaLapack parameters: grid=1x1, blocksize=None
  Wavefunction extrapolation:
    Improved wavefunction reuse through dual PAW basis 

Eigensolver
   Davidson(niter=2, smin=None, normalize=True) 

Densities:
  Coarse grid: 14*14*14 grid
  Fine grid: 28*28*28 grid
  Total Charge: 0.000000 

Density mixing:
  Method: separate
  Backend: pulay
  Linear mixing parameter: 0.05
  Mixing with 5 old densities
  Damping of long wave oscillations: 50 

Hamiltonian:
  XC and Coulomb potentials evaluated on a 28*28*28 grid
  Using the PBE Exchange-Correlation functional
 

XC parameters: PBE with 2 nearest neighbor stencil

Memory estimate:
  Process memory now: 152.70 MiB
  Calculator: 2.73 MiB
    Density: 1.09 MiB
      Arrays: 0.54 MiB
      Localized functions: 0.33 MiB
      Mixer: 0.21 MiB
    Hamiltonian: 0.36 MiB
      Arrays: 0.36 MiB
      XC: 0.00 MiB
      Poisson: 0.00 MiB
      vbar: 0.01 MiB
    Wavefunctions: 1.28 MiB
      Arrays psit_nG: 0.61 MiB
      Eigensolver: 0.10 MiB
      Projections: 0.04 MiB
      Projectors: 0.38 MiB
      PW-descriptor: 0.16 MiB

Total number of cores used: 16
Parallelization over k-points: 16

Number of atoms: 1
Number of atomic orbitals: 12
Number of bands in calculation: 12
Bands to converge: occupied states only
Number of valence electrons: 16

... initialized

Initializing position-dependent things.

Density initialized from atomic densities
Creating initial wave functions:
  12 bands from LCAO basis set

                
                
                
       Pt       
                
                
                
                

Positions:
   0 Pt     0.000000    0.000000    0.000000    ( 0.0000,  0.0000,  0.0000)

Unit cell:
           periodic     x           y           z      points  spacing
  1. axis:    yes    0.000000    1.892372    1.892372    14     0.1561
  2. axis:    yes    1.892372    0.000000    1.892372    14     0.1561
  3. axis:    yes    1.892372    1.892372    0.000000    14     0.1561

  Lengths:   2.676219   2.676219   2.676219
  Angles:   60.000000  60.000000  60.000000

Effective grid spacing dv^(1/3) = 0.1703

                     log10-error:    total        iterations:
           time      wfs    density  energy       fermi  poisson
iter:   1  21:52:05  +1.90   +inf    -6.552357    3             
iter:   2  21:52:05  -1.53  -1.47    -6.494836    3             
iter:   3  21:52:05  -1.39  -1.49    -6.246999    31            
iter:   4  21:52:06  -2.43  -1.82    -6.151952    32            
iter:   5  21:52:06  -2.50  -2.22    -6.151785    3             
iter:   6  21:52:07  -4.01  -2.49    -6.147318    3             
iter:   7  21:52:07  -4.26  -2.84    -6.145943    3             
iter:   8  21:52:07  -4.11  -3.12    -6.146342    3             
iter:   9  21:52:08  -5.83  -4.13    -6.146343    2             
iter:  10  21:52:08  -6.81  -4.35    -6.146340    2             
iter:  11  21:52:09  -6.46  -3.99    -6.146343    2             
iter:  12  21:52:09  -6.98  -4.48    -6.146343    2             
iter:  13  21:52:09  -8.31  -5.33    -6.146344    2             

Converged after 13 iterations.

Dipole moment: (0.000000, -0.000000, -0.000000) |e|*Ang

Energy contributions relative to reference atoms: (reference = -500375.362767)

Kinetic:        +12.259129
Potential:      -11.428602
External:        +0.000000
XC:              -6.368612
Entropy (-ST):   -0.046726
Local:           -0.584896
--------------------------
Free energy:     -6.169706
Extrapolated:    -6.146344

Fermi level: 14.39518

Showing only first 2 kpts
 Kpt  Band  Eigenvalues  Occupancy
  0     6     10.06074    0.00694
  0     7     12.27119    0.00694
  0     8     12.49745    0.00694
  0     9     29.71878    0.00000

  1     6      9.95285    0.00231
  1     7     12.43559    0.00231
  1     8     12.43559    0.00231
  1     9     29.37703    0.00000


No gap
System changes: cell 

Initialize ...

Pt-setup:
  name: Platinum
  id: 5ed695806aff0c961dba1a84acd7f4b2
  Z: 78
  valence: 16
  core: 62
  charge: 0.0
  file: /apps/Common/software/GPAW-setups/0.9.20000/Pt.PBE.gz
  compensation charges: gauss, rc=0.41, lmax=2
  cutoffs: 2.26(filt), 2.26(core),
  valence states:
                energy  radius
    6s(1.00)    -5.628   1.307
    5p(6.00)   -56.051   1.371
    6p(0.00)    -0.845   1.371
    5d(9.00)    -6.153   1.307
    *s          21.583   1.307
    *d          21.058   1.307

  Using partial waves for Pt as LCAO basis

Reference energy: -500375.362767

Spin-paired calculation

Occupation numbers:
  Fermi-Dirac: width=0.1000 eV

Convergence criteria:
  Maximum total energy change: 0.0005 eV / electron
  Maximum integral of absolute density change: 0.0001 electrons
  Maximum integral of absolute eigenstate change: 4e-08 eV^2
  Maximum number of iterations: 333

Symmetries present (total): 48

  ( 1  0  0)  ( 1  0  0)  ( 1  0  0)  ( 1  0  0)  ( 1  0 -1)  ( 1  0 -1)
  ( 1  0 -1)  ( 1 -1  0)  ( 0  1  0)  ( 0  0  1)  ( 1  0  0)  ( 1 -1  0)
  ( 1 -1  0)  ( 1  0 -1)  ( 0  0  1)  ( 0  1  0)  ( 1 -1  0)  ( 1  0  0)

  ( 1  0 -1)  ( 1  0 -1)  ( 1 -1  0)  ( 1 -1  0)  ( 1 -1  0)  ( 1 -1  0)
  ( 0  1 -1)  ( 0  0 -1)  ( 1  0  0)  ( 1  0 -1)  ( 0 -1  1)  ( 0 -1  0)
  ( 0  0 -1)  ( 0  1 -1)  ( 1  0 -1)  ( 1  0  0)  ( 0 -1  0)  ( 0 -1  1)

  ( 0  1  0)  ( 0  1  0)  ( 0  1  0)  ( 0  1  0)  ( 0  1 -1)  ( 0  1 -1)
  ( 1  0  0)  ( 0  1 -1)  ( 0  0  1)  (-1  1  0)  ( 1  0 -1)  ( 0  1  0)
  ( 0  0  1)  (-1  1  0)  ( 1  0  0)  ( 0  1 -1)  ( 0  0 -1)  (-1  1  0)

  ( 0  1 -1)  ( 0  1 -1)  ( 0  0  1)  ( 0  0  1)  ( 0  0  1)  ( 0  0  1)
  ( 0  0 -1)  (-1  1  0)  ( 1  0  0)  ( 0  1  0)  ( 0 -1  1)  (-1  0  1)
  ( 1  0 -1)  ( 0  1  0)  ( 0  1  0)  ( 1  0  0)  (-1  0  1)  ( 0 -1  1)

  ( 0  0 -1)  ( 0  0 -1)  ( 0  0 -1)  ( 0  0 -1)  ( 0 -1  1)  ( 0 -1  1)
  ( 1  0 -1)  ( 0  1 -1)  ( 0 -1  0)  (-1  0  0)  ( 1 -1  0)  ( 0  0  1)
  ( 0  1 -1)  ( 1  0 -1)  (-1  0  0)  ( 0 -1  0)  ( 0 -1  0)  (-1  0  1)

  ( 0 -1  1)  ( 0 -1  1)  ( 0 -1  0)  ( 0 -1  0)  ( 0 -1  0)  ( 0 -1  0)
  ( 0 -1  0)  (-1  0  1)  ( 1 -1  0)  ( 0  0 -1)  ( 0 -1  1)  (-1  0  0)
  ( 1 -1  0)  ( 0  0  1)  ( 0 -1  1)  (-1  0  0)  ( 1 -1  0)  ( 0  0 -1)

  (-1  1  0)  (-1  1  0)  (-1  1  0)  (-1  1  0)  (-1  0  1)  (-1  0  1)
  ( 0  1  0)  ( 0  1 -1)  (-1  0  1)  (-1  0  0)  ( 0  0  1)  ( 0 -1  1)
  ( 0  1 -1)  ( 0  1  0)  (-1  0  0)  (-1  0  1)  ( 0 -1  1)  ( 0  0  1)

  (-1  0  1)  (-1  0  1)  (-1  0  0)  (-1  0  0)  (-1  0  0)  (-1  0  0)
  (-1  1  0)  (-1  0  0)  ( 0  0 -1)  ( 0 -1  0)  (-1  1  0)  (-1  0  1)
  (-1  0  0)  (-1  1  0)  ( 0 -1  0)  ( 0  0 -1)  (-1  0  1)  (-1  1  0)
Note: your k-points are not as symmetric as your crystal!

1728 k-points: 12 x 12 x 12 Monkhorst-Pack grid
182 k-points in the irreducible part of the Brillouin zone
       k-points in crystal coordinates                weights
   0:     0.04166667    0.04166667   -0.04166667          6/1728
   1:     0.04166667    0.04166667    0.04166667          2/1728
   2:     0.12500000   -0.04166667   -0.04166667          6/1728
   3:     0.12500000    0.04166667   -0.12500000         12/1728
   4:     0.12500000    0.04166667   -0.04166667         12/1728
   5:     0.12500000    0.04166667    0.04166667          6/1728
   6:     0.12500000    0.12500000   -0.12500000          6/1728
   7:     0.12500000    0.12500000   -0.04166667          6/1728
   8:     0.12500000    0.12500000    0.04166667          6/1728
   9:     0.12500000    0.12500000    0.12500000          2/1728
          ...
 181:     0.45833333    0.45833333    0.45833333          2/1728

Wave functions: Plane wave expansion
  Cutoff energy: 450.000 eV
  Number of coefficients (min, max): 286, 307
  Pulay-stress correction: 0.000000 eV/Ang^3 (de/decut=0.000000)
  Using FFTW library
  ScaLapack parameters: grid=1x1, blocksize=None
  Wavefunction extrapolation:
    Improved wavefunction reuse through dual PAW basis 

Eigensolver
   Davidson(niter=2, smin=None, normalize=True) 

Densities:
  Coarse grid: 14*14*14 grid
  Fine grid: 28*28*28 grid
  Total Charge: 0.000000 

Density mixing:
  Method: separate
  Backend: pulay
  Linear mixing parameter: 0.05
  Mixing with 5 old densities
  Damping of long wave oscillations: 50 

Hamiltonian:
  XC and Coulomb potentials evaluated on a 28*28*28 grid
  Using the PBE Exchange-Correlation functional
 

XC parameters: PBE with 2 nearest neighbor stencil

Memory estimate:
  Process memory now: 152.70 MiB
  Calculator: 2.74 MiB
    Density: 1.09 MiB
      Arrays: 0.54 MiB
      Localized functions: 0.33 MiB
      Mixer: 0.21 MiB
    Hamiltonian: 0.36 MiB
      Arrays: 0.36 MiB
      XC: 0.00 MiB
      Poisson: 0.00 MiB
      vbar: 0.01 MiB
    Wavefunctions: 1.29 MiB
      Arrays psit_nG: 0.62 MiB
      Eigensolver: 0.10 MiB
      Projections: 0.04 MiB
      Projectors: 0.38 MiB
      PW-descriptor: 0.16 MiB

Total number of cores used: 16
Parallelization over k-points: 16

Number of atoms: 1
Number of atomic orbitals: 12
Number of bands in calculation: 12
Bands to converge: occupied states only
Number of valence electrons: 16

... initialized

Initializing position-dependent things.

Density initialized from atomic densities
Creating initial wave functions:
  12 bands from LCAO basis set

                
                
                
       Pt       
                
                
                
                

Positions:
   0 Pt     0.000000    0.000000    0.000000    ( 0.0000,  0.0000,  0.0000)

Unit cell:
           periodic     x           y           z      points  spacing
  1. axis:    yes    0.000000    1.896403    1.896403    14     0.1564
  2. axis:    yes    1.896403    0.000000    1.896403    14     0.1564
  3. axis:    yes    1.896403    1.896403    0.000000    14     0.1564

  Lengths:   2.681919   2.681919   2.681919
  Angles:   60.000000  60.000000  60.000000

Effective grid spacing dv^(1/3) = 0.1707

                     log10-error:    total        iterations:
           time      wfs    density  energy       fermi  poisson
iter:   1  21:52:14  +1.90   +inf    -6.579696    3             
iter:   2  21:52:14  -1.53  -1.47    -6.521817    3             
iter:   3  21:52:14  -1.39  -1.49    -6.273992    33            
iter:   4  21:52:15  -2.43  -1.82    -6.178648    30            
iter:   5  21:52:15  -2.51  -2.22    -6.178385    3             
iter:   6  21:52:16  -4.02  -2.50    -6.174228    3             
iter:   7  21:52:16  -4.26  -2.84    -6.172843    3             
iter:   8  21:52:16  -4.12  -3.12    -6.173231    3             
iter:   9  21:52:17  -5.85  -4.13    -6.173232    2             
iter:  10  21:52:17  -6.75  -4.35    -6.173229    2             
iter:  11  21:52:18  -6.44  -3.96    -6.173232    2             
iter:  12  21:52:18  -7.00  -4.47    -6.173232    2             
iter:  13  21:52:18  -8.30  -5.29    -6.173232    2             

Converged after 13 iterations.

Dipole moment: (0.000000, -0.000000, 0.000000) |e|*Ang

Energy contributions relative to reference atoms: (reference = -500375.362767)

Kinetic:        +11.137744
Potential:      -10.474069
External:        +0.000000
XC:              -6.231999
Entropy (-ST):   -0.047170
Local:           -0.581324
--------------------------
Free energy:     -6.196817
Extrapolated:    -6.173232

Fermi level: 14.25259

Showing only first 2 kpts
 Kpt  Band  Eigenvalues  Occupancy
  0     6      9.96280    0.00694
  0     7     12.15089    0.00694
  0     8     12.37445    0.00694
  0     9     29.58986    0.00000

  1     6      9.85585    0.00231
  1     7     12.31321    0.00231
  1     8     12.31321    0.00231
  1     9     29.25177    0.00000


No gap
System changes: cell 

Initialize ...

Pt-setup:
  name: Platinum
  id: 5ed695806aff0c961dba1a84acd7f4b2
  Z: 78
  valence: 16
  core: 62
  charge: 0.0
  file: /apps/Common/software/GPAW-setups/0.9.20000/Pt.PBE.gz
  compensation charges: gauss, rc=0.41, lmax=2
  cutoffs: 2.26(filt), 2.26(core),
  valence states:
                energy  radius
    6s(1.00)    -5.628   1.307
    5p(6.00)   -56.051   1.371
    6p(0.00)    -0.845   1.371
    5d(9.00)    -6.153   1.307
    *s          21.583   1.307
    *d          21.058   1.307

  Using partial waves for Pt as LCAO basis

Reference energy: -500375.362767

Spin-paired calculation

Occupation numbers:
  Fermi-Dirac: width=0.1000 eV

Convergence criteria:
  Maximum total energy change: 0.0005 eV / electron
  Maximum integral of absolute density change: 0.0001 electrons
  Maximum integral of absolute eigenstate change: 4e-08 eV^2
  Maximum number of iterations: 333

Symmetries present (total): 48

  ( 1  0  0)  ( 1  0  0)  ( 1  0  0)  ( 1  0  0)  ( 1  0 -1)  ( 1  0 -1)
  ( 1  0 -1)  ( 1 -1  0)  ( 0  1  0)  ( 0  0  1)  ( 1  0  0)  ( 1 -1  0)
  ( 1 -1  0)  ( 1  0 -1)  ( 0  0  1)  ( 0  1  0)  ( 1 -1  0)  ( 1  0  0)

  ( 1  0 -1)  ( 1  0 -1)  ( 1 -1  0)  ( 1 -1  0)  ( 1 -1  0)  ( 1 -1  0)
  ( 0  1 -1)  ( 0  0 -1)  ( 1  0  0)  ( 1  0 -1)  ( 0 -1  1)  ( 0 -1  0)
  ( 0  0 -1)  ( 0  1 -1)  ( 1  0 -1)  ( 1  0  0)  ( 0 -1  0)  ( 0 -1  1)

  ( 0  1  0)  ( 0  1  0)  ( 0  1  0)  ( 0  1  0)  ( 0  1 -1)  ( 0  1 -1)
  ( 1  0  0)  ( 0  1 -1)  ( 0  0  1)  (-1  1  0)  ( 1  0 -1)  ( 0  1  0)
  ( 0  0  1)  (-1  1  0)  ( 1  0  0)  ( 0  1 -1)  ( 0  0 -1)  (-1  1  0)

  ( 0  1 -1)  ( 0  1 -1)  ( 0  0  1)  ( 0  0  1)  ( 0  0  1)  ( 0  0  1)
  ( 0  0 -1)  (-1  1  0)  ( 1  0  0)  ( 0  1  0)  ( 0 -1  1)  (-1  0  1)
  ( 1  0 -1)  ( 0  1  0)  ( 0  1  0)  ( 1  0  0)  (-1  0  1)  ( 0 -1  1)

  ( 0  0 -1)  ( 0  0 -1)  ( 0  0 -1)  ( 0  0 -1)  ( 0 -1  1)  ( 0 -1  1)
  ( 1  0 -1)  ( 0  1 -1)  ( 0 -1  0)  (-1  0  0)  ( 1 -1  0)  ( 0  0  1)
  ( 0  1 -1)  ( 1  0 -1)  (-1  0  0)  ( 0 -1  0)  ( 0 -1  0)  (-1  0  1)

  ( 0 -1  1)  ( 0 -1  1)  ( 0 -1  0)  ( 0 -1  0)  ( 0 -1  0)  ( 0 -1  0)
  ( 0 -1  0)  (-1  0  1)  ( 1 -1  0)  ( 0  0 -1)  ( 0 -1  1)  (-1  0  0)
  ( 1 -1  0)  ( 0  0  1)  ( 0 -1  1)  (-1  0  0)  ( 1 -1  0)  ( 0  0 -1)

  (-1  1  0)  (-1  1  0)  (-1  1  0)  (-1  1  0)  (-1  0  1)  (-1  0  1)
  ( 0  1  0)  ( 0  1 -1)  (-1  0  1)  (-1  0  0)  ( 0  0  1)  ( 0 -1  1)
  ( 0  1 -1)  ( 0  1  0)  (-1  0  0)  (-1  0  1)  ( 0 -1  1)  ( 0  0  1)

  (-1  0  1)  (-1  0  1)  (-1  0  0)  (-1  0  0)  (-1  0  0)  (-1  0  0)
  (-1  1  0)  (-1  0  0)  ( 0  0 -1)  ( 0 -1  0)  (-1  1  0)  (-1  0  1)
  (-1  0  0)  (-1  1  0)  ( 0 -1  0)  ( 0  0 -1)  (-1  0  1)  (-1  1  0)
Note: your k-points are not as symmetric as your crystal!

1728 k-points: 12 x 12 x 12 Monkhorst-Pack grid
182 k-points in the irreducible part of the Brillouin zone
       k-points in crystal coordinates                weights
   0:     0.04166667    0.04166667   -0.04166667          6/1728
   1:     0.04166667    0.04166667    0.04166667          2/1728
   2:     0.12500000   -0.04166667   -0.04166667          6/1728
   3:     0.12500000    0.04166667   -0.12500000         12/1728
   4:     0.12500000    0.04166667   -0.04166667         12/1728
   5:     0.12500000    0.04166667    0.04166667          6/1728
   6:     0.12500000    0.12500000   -0.12500000          6/1728
   7:     0.12500000    0.12500000   -0.04166667          6/1728
   8:     0.12500000    0.12500000    0.04166667          6/1728
   9:     0.12500000    0.12500000    0.12500000          2/1728
          ...
 181:     0.45833333    0.45833333    0.45833333          2/1728

Wave functions: Plane wave expansion
  Cutoff energy: 450.000 eV
  Number of coefficients (min, max): 288, 307
  Pulay-stress correction: 0.000000 eV/Ang^3 (de/decut=0.000000)
  Using FFTW library
  ScaLapack parameters: grid=1x1, blocksize=None
  Wavefunction extrapolation:
    Improved wavefunction reuse through dual PAW basis 

Eigensolver
   Davidson(niter=2, smin=None, normalize=True) 

Densities:
  Coarse grid: 14*14*14 grid
  Fine grid: 28*28*28 grid
  Total Charge: 0.000000 

Density mixing:
  Method: separate
  Backend: pulay
  Linear mixing parameter: 0.05
  Mixing with 5 old densities
  Damping of long wave oscillations: 50 

Hamiltonian:
  XC and Coulomb potentials evaluated on a 28*28*28 grid
  Using the PBE Exchange-Correlation functional
 

XC parameters: PBE with 2 nearest neighbor stencil

Memory estimate:
  Process memory now: 152.70 MiB
  Calculator: 2.75 MiB
    Density: 1.09 MiB
      Arrays: 0.54 MiB
      Localized functions: 0.34 MiB
      Mixer: 0.21 MiB
    Hamiltonian: 0.36 MiB
      Arrays: 0.36 MiB
      XC: 0.00 MiB
      Poisson: 0.00 MiB
      vbar: 0.01 MiB
    Wavefunctions: 1.29 MiB
      Arrays psit_nG: 0.62 MiB
      Eigensolver: 0.10 MiB
      Projections: 0.04 MiB
      Projectors: 0.38 MiB
      PW-descriptor: 0.16 MiB

Total number of cores used: 16
Parallelization over k-points: 16

Number of atoms: 1
Number of atomic orbitals: 12
Number of bands in calculation: 12
Bands to converge: occupied states only
Number of valence electrons: 16

... initialized

Initializing position-dependent things.

Density initialized from atomic densities
Creating initial wave functions:
  12 bands from LCAO basis set

                
                
                
       Pt       
                
                
                
                

Positions:
   0 Pt     0.000000    0.000000    0.000000    ( 0.0000,  0.0000,  0.0000)

Unit cell:
           periodic     x           y           z      points  spacing
  1. axis:    yes    0.000000    1.900434    1.900434    14     0.1567
  2. axis:    yes    1.900434    0.000000    1.900434    14     0.1567
  3. axis:    yes    1.900434    1.900434    0.000000    14     0.1567

  Lengths:   2.687619   2.687619   2.687619
  Angles:   60.000000  60.000000  60.000000

Effective grid spacing dv^(1/3) = 0.1710

                     log10-error:    total        iterations:
           time      wfs    density  energy       fermi  poisson
iter:   1  21:52:23  +1.90   +inf    -6.605425    3             
iter:   2  21:52:23  -1.53  -1.47    -6.547202    4             
iter:   3  21:52:24  -1.38  -1.49    -6.299443    32            
iter:   4  21:52:24  -2.43  -1.82    -6.203784    30            
iter:   5  21:52:24  -2.52  -2.22    -6.203455    3             
iter:   6  21:52:25  -4.02  -2.50    -6.199561    3             
iter:   7  21:52:25  -4.26  -2.83    -6.198175    3             
iter:   8  21:52:26  -4.13  -3.12    -6.198552    3             
iter:   9  21:52:26  -5.86  -4.13    -6.198553    2             
iter:  10  21:52:26  -6.72  -4.35    -6.198550    2             
iter:  11  21:52:27  -6.43  -3.94    -6.198553    2             
iter:  12  21:52:27  -7.02  -4.47    -6.198553    2             
iter:  13  21:52:28  -8.30  -5.26    -6.198553    2             

Converged after 13 iterations.

Dipole moment: (-0.000000, 0.000000, -0.000000) |e|*Ang

Energy contributions relative to reference atoms: (reference = -500375.362767)

Kinetic:        +10.041551
Potential:       -9.540878
External:        +0.000000
XC:              -6.097526
Entropy (-ST):   -0.047615
Local:           -0.577892
--------------------------
Free energy:     -6.222361
Extrapolated:    -6.198553

Fermi level: 14.11126

Showing only first 2 kpts
 Kpt  Band  Eigenvalues  Occupancy
  0     6      9.86553    0.00694
  0     7     12.03151    0.00694
  0     8     12.25234    0.00694
  0     9     29.46170    0.00000

  1     6      9.75955    0.00231
  1     7     12.19173    0.00231
  1     8     12.19173    0.00231
  1     9     29.12724    0.00000


No gap
System changes: cell 

Initialize ...

Pt-setup:
  name: Platinum
  id: 5ed695806aff0c961dba1a84acd7f4b2
  Z: 78
  valence: 16
  core: 62
  charge: 0.0
  file: /apps/Common/software/GPAW-setups/0.9.20000/Pt.PBE.gz
  compensation charges: gauss, rc=0.41, lmax=2
  cutoffs: 2.26(filt), 2.26(core),
  valence states:
                energy  radius
    6s(1.00)    -5.628   1.307
    5p(6.00)   -56.051   1.371
    6p(0.00)    -0.845   1.371
    5d(9.00)    -6.153   1.307
    *s          21.583   1.307
    *d          21.058   1.307

  Using partial waves for Pt as LCAO basis

Reference energy: -500375.362767

Spin-paired calculation

Occupation numbers:
  Fermi-Dirac: width=0.1000 eV

Convergence criteria:
  Maximum total energy change: 0.0005 eV / electron
  Maximum integral of absolute density change: 0.0001 electrons
  Maximum integral of absolute eigenstate change: 4e-08 eV^2
  Maximum number of iterations: 333

Symmetries present (total): 48

  ( 1  0  0)  ( 1  0  0)  ( 1  0  0)  ( 1  0  0)  ( 1  0 -1)  ( 1  0 -1)
  ( 1  0 -1)  ( 1 -1  0)  ( 0  1  0)  ( 0  0  1)  ( 1  0  0)  ( 1 -1  0)
  ( 1 -1  0)  ( 1  0 -1)  ( 0  0  1)  ( 0  1  0)  ( 1 -1  0)  ( 1  0  0)

  ( 1  0 -1)  ( 1  0 -1)  ( 1 -1  0)  ( 1 -1  0)  ( 1 -1  0)  ( 1 -1  0)
  ( 0  1 -1)  ( 0  0 -1)  ( 1  0  0)  ( 1  0 -1)  ( 0 -1  1)  ( 0 -1  0)
  ( 0  0 -1)  ( 0  1 -1)  ( 1  0 -1)  ( 1  0  0)  ( 0 -1  0)  ( 0 -1  1)

  ( 0  1  0)  ( 0  1  0)  ( 0  1  0)  ( 0  1  0)  ( 0  1 -1)  ( 0  1 -1)
  ( 1  0  0)  ( 0  1 -1)  ( 0  0  1)  (-1  1  0)  ( 1  0 -1)  ( 0  1  0)
  ( 0  0  1)  (-1  1  0)  ( 1  0  0)  ( 0  1 -1)  ( 0  0 -1)  (-1  1  0)

  ( 0  1 -1)  ( 0  1 -1)  ( 0  0  1)  ( 0  0  1)  ( 0  0  1)  ( 0  0  1)
  ( 0  0 -1)  (-1  1  0)  ( 1  0  0)  ( 0  1  0)  ( 0 -1  1)  (-1  0  1)
  ( 1  0 -1)  ( 0  1  0)  ( 0  1  0)  ( 1  0  0)  (-1  0  1)  ( 0 -1  1)

  ( 0  0 -1)  ( 0  0 -1)  ( 0  0 -1)  ( 0  0 -1)  ( 0 -1  1)  ( 0 -1  1)
  ( 1  0 -1)  ( 0  1 -1)  ( 0 -1  0)  (-1  0  0)  ( 1 -1  0)  ( 0  0  1)
  ( 0  1 -1)  ( 1  0 -1)  (-1  0  0)  ( 0 -1  0)  ( 0 -1  0)  (-1  0  1)

  ( 0 -1  1)  ( 0 -1  1)  ( 0 -1  0)  ( 0 -1  0)  ( 0 -1  0)  ( 0 -1  0)
  ( 0 -1  0)  (-1  0  1)  ( 1 -1  0)  ( 0  0 -1)  ( 0 -1  1)  (-1  0  0)
  ( 1 -1  0)  ( 0  0  1)  ( 0 -1  1)  (-1  0  0)  ( 1 -1  0)  ( 0  0 -1)

  (-1  1  0)  (-1  1  0)  (-1  1  0)  (-1  1  0)  (-1  0  1)  (-1  0  1)
  ( 0  1  0)  ( 0  1 -1)  (-1  0  1)  (-1  0  0)  ( 0  0  1)  ( 0 -1  1)
  ( 0  1 -1)  ( 0  1  0)  (-1  0  0)  (-1  0  1)  ( 0 -1  1)  ( 0  0  1)

  (-1  0  1)  (-1  0  1)  (-1  0  0)  (-1  0  0)  (-1  0  0)  (-1  0  0)
  (-1  1  0)  (-1  0  0)  ( 0  0 -1)  ( 0 -1  0)  (-1  1  0)  (-1  0  1)
  (-1  0  0)  (-1  1  0)  ( 0 -1  0)  ( 0  0 -1)  (-1  0  1)  (-1  1  0)
Note: your k-points are not as symmetric as your crystal!

1728 k-points: 12 x 12 x 12 Monkhorst-Pack grid
182 k-points in the irreducible part of the Brillouin zone
       k-points in crystal coordinates                weights
   0:     0.04166667    0.04166667   -0.04166667          6/1728
   1:     0.04166667    0.04166667    0.04166667          2/1728
   2:     0.12500000   -0.04166667   -0.04166667          6/1728
   3:     0.12500000    0.04166667   -0.12500000         12/1728
   4:     0.12500000    0.04166667   -0.04166667         12/1728
   5:     0.12500000    0.04166667    0.04166667          6/1728
   6:     0.12500000    0.12500000   -0.12500000          6/1728
   7:     0.12500000    0.12500000   -0.04166667          6/1728
   8:     0.12500000    0.12500000    0.04166667          6/1728
   9:     0.12500000    0.12500000    0.12500000          2/1728
          ...
 181:     0.45833333    0.45833333    0.45833333          2/1728

Wave functions: Plane wave expansion
  Cutoff energy: 450.000 eV
  Number of coefficients (min, max): 291, 309
  Pulay-stress correction: 0.000000 eV/Ang^3 (de/decut=0.000000)
  Using FFTW library
  ScaLapack parameters: grid=1x1, blocksize=None
  Wavefunction extrapolation:
    Improved wavefunction reuse through dual PAW basis 

Eigensolver
   Davidson(niter=2, smin=None, normalize=True) 

Densities:
  Coarse grid: 14*14*14 grid
  Fine grid: 28*28*28 grid
  Total Charge: 0.000000 

Density mixing:
  Method: separate
  Backend: pulay
  Linear mixing parameter: 0.05
  Mixing with 5 old densities
  Damping of long wave oscillations: 50 

Hamiltonian:
  XC and Coulomb potentials evaluated on a 28*28*28 grid
  Using the PBE Exchange-Correlation functional
 

XC parameters: PBE with 2 nearest neighbor stencil

Memory estimate:
  Process memory now: 152.70 MiB
  Calculator: 2.75 MiB
    Density: 1.09 MiB
      Arrays: 0.54 MiB
      Localized functions: 0.34 MiB
      Mixer: 0.21 MiB
    Hamiltonian: 0.36 MiB
      Arrays: 0.36 MiB
      XC: 0.00 MiB
      Poisson: 0.00 MiB
      vbar: 0.01 MiB
    Wavefunctions: 1.30 MiB
      Arrays psit_nG: 0.62 MiB
      Eigensolver: 0.10 MiB
      Projections: 0.04 MiB
      Projectors: 0.38 MiB
      PW-descriptor: 0.16 MiB

Total number of cores used: 16
Parallelization over k-points: 16

Number of atoms: 1
Number of atomic orbitals: 12
Number of bands in calculation: 12
Bands to converge: occupied states only
Number of valence electrons: 16

... initialized

Initializing position-dependent things.

Density initialized from atomic densities
Creating initial wave functions:
  12 bands from LCAO basis set

                
                
                
       Pt       
                
                
                
                

Positions:
   0 Pt     0.000000    0.000000    0.000000    ( 0.0000,  0.0000,  0.0000)

Unit cell:
           periodic     x           y           z      points  spacing
  1. axis:    yes    0.000000    1.904464    1.904464    14     0.1571
  2. axis:    yes    1.904464    0.000000    1.904464    14     0.1571
  3. axis:    yes    1.904464    1.904464    0.000000    14     0.1571

  Lengths:   2.693319   2.693319   2.693319
  Angles:   60.000000  60.000000  60.000000

Effective grid spacing dv^(1/3) = 0.1714

                     log10-error:    total        iterations:
           time      wfs    density  energy       fermi  poisson
iter:   1  21:52:32  +1.90   +inf    -6.629612    3             
iter:   2  21:52:32  -1.53  -1.47    -6.571047    4             
iter:   3  21:52:33  -1.38  -1.49    -6.323528    33            
iter:   4  21:52:33  -2.43  -1.81    -6.227420    32            
iter:   5  21:52:33  -2.53  -2.22    -6.227024    3             
iter:   6  21:52:34  -4.02  -2.51    -6.223381    3             
iter:   7  21:52:34  -4.27  -2.83    -6.222001    3             
iter:   8  21:52:34  -4.14  -3.13    -6.222366    3             
iter:   9  21:52:35  -5.88  -4.13    -6.222368    2             
iter:  10  21:52:35  -6.69  -4.34    -6.222365    2             
iter:  11  21:52:36  -6.42  -3.93    -6.222367    2             
iter:  12  21:52:36  -7.04  -4.46    -6.222368    2             
iter:  13  21:52:36  -8.29  -5.23    -6.222368    2             

Converged after 13 iterations.

Dipole moment: (0.000000, 0.000000, 0.000000) |e|*Ang

Energy contributions relative to reference atoms: (reference = -500375.362767)

Kinetic:         +8.970112
Potential:       -8.628661
External:        +0.000000
XC:              -5.965180
Entropy (-ST):   -0.048057
Local:           -0.574611
--------------------------
Free energy:     -6.246397
Extrapolated:    -6.222368

Fermi level: 13.97115

Showing only first 2 kpts
 Kpt  Band  Eigenvalues  Occupancy
  0     6      9.76902    0.00694
  0     7     11.91314    0.00694
  0     8     12.13134    0.00694
  0     9     29.33431    0.00000

  1     6      9.66405    0.00231
  1     7     12.07135    0.00231
  1     8     12.07135    0.00231
  1     9     29.00344    0.00000


No gap
System changes: cell 

Initialize ...

Pt-setup:
  name: Platinum
  id: 5ed695806aff0c961dba1a84acd7f4b2
  Z: 78
  valence: 16
  core: 62
  charge: 0.0
  file: /apps/Common/software/GPAW-setups/0.9.20000/Pt.PBE.gz
  compensation charges: gauss, rc=0.41, lmax=2
  cutoffs: 2.26(filt), 2.26(core),
  valence states:
                energy  radius
    6s(1.00)    -5.628   1.307
    5p(6.00)   -56.051   1.371
    6p(0.00)    -0.845   1.371
    5d(9.00)    -6.153   1.307
    *s          21.583   1.307
    *d          21.058   1.307

  Using partial waves for Pt as LCAO basis

Reference energy: -500375.362767

Spin-paired calculation

Occupation numbers:
  Fermi-Dirac: width=0.1000 eV

Convergence criteria:
  Maximum total energy change: 0.0005 eV / electron
  Maximum integral of absolute density change: 0.0001 electrons
  Maximum integral of absolute eigenstate change: 4e-08 eV^2
  Maximum number of iterations: 333

Symmetries present (total): 48

  ( 1  0  0)  ( 1  0  0)  ( 1  0  0)  ( 1  0  0)  ( 1  0 -1)  ( 1  0 -1)
  ( 1  0 -1)  ( 1 -1  0)  ( 0  1  0)  ( 0  0  1)  ( 1  0  0)  ( 1 -1  0)
  ( 1 -1  0)  ( 1  0 -1)  ( 0  0  1)  ( 0  1  0)  ( 1 -1  0)  ( 1  0  0)

  ( 1  0 -1)  ( 1  0 -1)  ( 1 -1  0)  ( 1 -1  0)  ( 1 -1  0)  ( 1 -1  0)
  ( 0  1 -1)  ( 0  0 -1)  ( 1  0  0)  ( 1  0 -1)  ( 0 -1  1)  ( 0 -1  0)
  ( 0  0 -1)  ( 0  1 -1)  ( 1  0 -1)  ( 1  0  0)  ( 0 -1  0)  ( 0 -1  1)

  ( 0  1  0)  ( 0  1  0)  ( 0  1  0)  ( 0  1  0)  ( 0  1 -1)  ( 0  1 -1)
  ( 1  0  0)  ( 0  1 -1)  ( 0  0  1)  (-1  1  0)  ( 1  0 -1)  ( 0  1  0)
  ( 0  0  1)  (-1  1  0)  ( 1  0  0)  ( 0  1 -1)  ( 0  0 -1)  (-1  1  0)

  ( 0  1 -1)  ( 0  1 -1)  ( 0  0  1)  ( 0  0  1)  ( 0  0  1)  ( 0  0  1)
  ( 0  0 -1)  (-1  1  0)  ( 1  0  0)  ( 0  1  0)  ( 0 -1  1)  (-1  0  1)
  ( 1  0 -1)  ( 0  1  0)  ( 0  1  0)  ( 1  0  0)  (-1  0  1)  ( 0 -1  1)

  ( 0  0 -1)  ( 0  0 -1)  ( 0  0 -1)  ( 0  0 -1)  ( 0 -1  1)  ( 0 -1  1)
  ( 1  0 -1)  ( 0  1 -1)  ( 0 -1  0)  (-1  0  0)  ( 1 -1  0)  ( 0  0  1)
  ( 0  1 -1)  ( 1  0 -1)  (-1  0  0)  ( 0 -1  0)  ( 0 -1  0)  (-1  0  1)

  ( 0 -1  1)  ( 0 -1  1)  ( 0 -1  0)  ( 0 -1  0)  ( 0 -1  0)  ( 0 -1  0)
  ( 0 -1  0)  (-1  0  1)  ( 1 -1  0)  ( 0  0 -1)  ( 0 -1  1)  (-1  0  0)
  ( 1 -1  0)  ( 0  0  1)  ( 0 -1  1)  (-1  0  0)  ( 1 -1  0)  ( 0  0 -1)

  (-1  1  0)  (-1  1  0)  (-1  1  0)  (-1  1  0)  (-1  0  1)  (-1  0  1)
  ( 0  1  0)  ( 0  1 -1)  (-1  0  1)  (-1  0  0)  ( 0  0  1)  ( 0 -1  1)
  ( 0  1 -1)  ( 0  1  0)  (-1  0  0)  (-1  0  1)  ( 0 -1  1)  ( 0  0  1)

  (-1  0  1)  (-1  0  1)  (-1  0  0)  (-1  0  0)  (-1  0  0)  (-1  0  0)
  (-1  1  0)  (-1  0  0)  ( 0  0 -1)  ( 0 -1  0)  (-1  1  0)  (-1  0  1)
  (-1  0  0)  (-1  1  0)  ( 0 -1  0)  ( 0  0 -1)  (-1  0  1)  (-1  1  0)
Note: your k-points are not as symmetric as your crystal!

1728 k-points: 12 x 12 x 12 Monkhorst-Pack grid
182 k-points in the irreducible part of the Brillouin zone
       k-points in crystal coordinates                weights
   0:     0.04166667    0.04166667   -0.04166667          6/1728
   1:     0.04166667    0.04166667    0.04166667          2/1728
   2:     0.12500000   -0.04166667   -0.04166667          6/1728
   3:     0.12500000    0.04166667   -0.12500000         12/1728
   4:     0.12500000    0.04166667   -0.04166667         12/1728
   5:     0.12500000    0.04166667    0.04166667          6/1728
   6:     0.12500000    0.12500000   -0.12500000          6/1728
   7:     0.12500000    0.12500000   -0.04166667          6/1728
   8:     0.12500000    0.12500000    0.04166667          6/1728
   9:     0.12500000    0.12500000    0.12500000          2/1728
          ...
 181:     0.45833333    0.45833333    0.45833333          2/1728

Wave functions: Plane wave expansion
  Cutoff energy: 450.000 eV
  Number of coefficients (min, max): 293, 313
  Pulay-stress correction: 0.000000 eV/Ang^3 (de/decut=0.000000)
  Using FFTW library
  ScaLapack parameters: grid=1x1, blocksize=None
  Wavefunction extrapolation:
    Improved wavefunction reuse through dual PAW basis 

Eigensolver
   Davidson(niter=2, smin=None, normalize=True) 

Densities:
  Coarse grid: 14*14*14 grid
  Fine grid: 28*28*28 grid
  Total Charge: 0.000000 

Density mixing:
  Method: separate
  Backend: pulay
  Linear mixing parameter: 0.05
  Mixing with 5 old densities
  Damping of long wave oscillations: 50 

Hamiltonian:
  XC and Coulomb potentials evaluated on a 28*28*28 grid
  Using the PBE Exchange-Correlation functional
 

XC parameters: PBE with 2 nearest neighbor stencil

Memory estimate:
  Process memory now: 152.70 MiB
  Calculator: 2.77 MiB
    Density: 1.10 MiB
      Arrays: 0.54 MiB
      Localized functions: 0.35 MiB
      Mixer: 0.21 MiB
    Hamiltonian: 0.36 MiB
      Arrays: 0.36 MiB
      XC: 0.00 MiB
      Poisson: 0.00 MiB
      vbar: 0.01 MiB
    Wavefunctions: 1.31 MiB
      Arrays psit_nG: 0.63 MiB
      Eigensolver: 0.10 MiB
      Projections: 0.04 MiB
      Projectors: 0.39 MiB
      PW-descriptor: 0.16 MiB

Total number of cores used: 16
Parallelization over k-points: 16

Number of atoms: 1
Number of atomic orbitals: 12
Number of bands in calculation: 12
Bands to converge: occupied states only
Number of valence electrons: 16

... initialized

Initializing position-dependent things.

Density initialized from atomic densities
Creating initial wave functions:
  12 bands from LCAO basis set

                
                
                
       Pt       
                
                
                
                

Positions:
   0 Pt     0.000000    0.000000    0.000000    ( 0.0000,  0.0000,  0.0000)

Unit cell:
           periodic     x           y           z      points  spacing
  1. axis:    yes    0.000000    1.908495    1.908495    14     0.1574
  2. axis:    yes    1.908495    0.000000    1.908495    14     0.1574
  3. axis:    yes    1.908495    1.908495    0.000000    14     0.1574

  Lengths:   2.699019   2.699019   2.699019
  Angles:   60.000000  60.000000  60.000000

Effective grid spacing dv^(1/3) = 0.1718

                     log10-error:    total        iterations:
           time      wfs    density  energy       fermi  poisson
iter:   1  21:52:40  +1.90   +inf    -6.652284    3             
iter:   2  21:52:41  -1.52  -1.47    -6.593369    4             
iter:   3  21:52:41  -1.37  -1.49    -6.346213    32            
iter:   4  21:52:42  -2.44  -1.81    -6.249569    32            
iter:   5  21:52:42  -2.54  -2.22    -6.249109    3             
iter:   6  21:52:42  -4.02  -2.52    -6.245703    3             
iter:   7  21:52:43  -4.28  -2.83    -6.244331    3             
iter:   8  21:52:43  -4.15  -3.13    -6.244686    3             
iter:   9  21:52:43  -5.89  -4.13    -6.244688    2             
iter:  10  21:52:44  -6.67  -4.34    -6.244685    2             
iter:  11  21:52:44  -6.40  -3.92    -6.244687    2             
iter:  12  21:52:44  -7.06  -4.47    -6.244688    2             
iter:  13  21:52:45  -8.32  -5.21    -6.244688    2             

Converged after 13 iterations.

Dipole moment: (0.000000, 0.000000, -0.000000) |e|*Ang

Energy contributions relative to reference atoms: (reference = -500375.362767)

Kinetic:         +7.922858
Potential:       -7.736930
External:        +0.000000
XC:              -5.834910
Entropy (-ST):   -0.048502
Local:           -0.571455
--------------------------
Free energy:     -6.268939
Extrapolated:    -6.244688

Fermi level: 13.83225

Showing only first 2 kpts
 Kpt  Band  Eigenvalues  Occupancy
  0     6      9.67321    0.00694
  0     7     11.79571    0.00694
  0     8     12.01133    0.00694
  0     9     29.20767    0.00000

  1     6      9.56887    0.00231
  1     7     11.95170    0.00231
  1     8     11.95170    0.00231
  1     9     28.88036    0.00000


No gap
System changes: cell 

Initialize ...

Pt-setup:
  name: Platinum
  id: 5ed695806aff0c961dba1a84acd7f4b2
  Z: 78
  valence: 16
  core: 62
  charge: 0.0
  file: /apps/Common/software/GPAW-setups/0.9.20000/Pt.PBE.gz
  compensation charges: gauss, rc=0.41, lmax=2
  cutoffs: 2.26(filt), 2.26(core),
  valence states:
                energy  radius
    6s(1.00)    -5.628   1.307
    5p(6.00)   -56.051   1.371
    6p(0.00)    -0.845   1.371
    5d(9.00)    -6.153   1.307
    *s          21.583   1.307
    *d          21.058   1.307

  Using partial waves for Pt as LCAO basis

Reference energy: -500375.362767

Spin-paired calculation

Occupation numbers:
  Fermi-Dirac: width=0.1000 eV

Convergence criteria:
  Maximum total energy change: 0.0005 eV / electron
  Maximum integral of absolute density change: 0.0001 electrons
  Maximum integral of absolute eigenstate change: 4e-08 eV^2
  Maximum number of iterations: 333

Symmetries present (total): 48

  ( 1  0  0)  ( 1  0  0)  ( 1  0  0)  ( 1  0  0)  ( 1  0 -1)  ( 1  0 -1)
  ( 1  0 -1)  ( 1 -1  0)  ( 0  1  0)  ( 0  0  1)  ( 1  0  0)  ( 1 -1  0)
  ( 1 -1  0)  ( 1  0 -1)  ( 0  0  1)  ( 0  1  0)  ( 1 -1  0)  ( 1  0  0)

  ( 1  0 -1)  ( 1  0 -1)  ( 1 -1  0)  ( 1 -1  0)  ( 1 -1  0)  ( 1 -1  0)
  ( 0  1 -1)  ( 0  0 -1)  ( 1  0  0)  ( 1  0 -1)  ( 0 -1  1)  ( 0 -1  0)
  ( 0  0 -1)  ( 0  1 -1)  ( 1  0 -1)  ( 1  0  0)  ( 0 -1  0)  ( 0 -1  1)

  ( 0  1  0)  ( 0  1  0)  ( 0  1  0)  ( 0  1  0)  ( 0  1 -1)  ( 0  1 -1)
  ( 1  0  0)  ( 0  1 -1)  ( 0  0  1)  (-1  1  0)  ( 1  0 -1)  ( 0  1  0)
  ( 0  0  1)  (-1  1  0)  ( 1  0  0)  ( 0  1 -1)  ( 0  0 -1)  (-1  1  0)

  ( 0  1 -1)  ( 0  1 -1)  ( 0  0  1)  ( 0  0  1)  ( 0  0  1)  ( 0  0  1)
  ( 0  0 -1)  (-1  1  0)  ( 1  0  0)  ( 0  1  0)  ( 0 -1  1)  (-1  0  1)
  ( 1  0 -1)  ( 0  1  0)  ( 0  1  0)  ( 1  0  0)  (-1  0  1)  ( 0 -1  1)

  ( 0  0 -1)  ( 0  0 -1)  ( 0  0 -1)  ( 0  0 -1)  ( 0 -1  1)  ( 0 -1  1)
  ( 1  0 -1)  ( 0  1 -1)  ( 0 -1  0)  (-1  0  0)  ( 1 -1  0)  ( 0  0  1)
  ( 0  1 -1)  ( 1  0 -1)  (-1  0  0)  ( 0 -1  0)  ( 0 -1  0)  (-1  0  1)

  ( 0 -1  1)  ( 0 -1  1)  ( 0 -1  0)  ( 0 -1  0)  ( 0 -1  0)  ( 0 -1  0)
  ( 0 -1  0)  (-1  0  1)  ( 1 -1  0)  ( 0  0 -1)  ( 0 -1  1)  (-1  0  0)
  ( 1 -1  0)  ( 0  0  1)  ( 0 -1  1)  (-1  0  0)  ( 1 -1  0)  ( 0  0 -1)

  (-1  1  0)  (-1  1  0)  (-1  1  0)  (-1  1  0)  (-1  0  1)  (-1  0  1)
  ( 0  1  0)  ( 0  1 -1)  (-1  0  1)  (-1  0  0)  ( 0  0  1)  ( 0 -1  1)
  ( 0  1 -1)  ( 0  1  0)  (-1  0  0)  (-1  0  1)  ( 0 -1  1)  ( 0  0  1)

  (-1  0  1)  (-1  0  1)  (-1  0  0)  (-1  0  0)  (-1  0  0)  (-1  0  0)
  (-1  1  0)  (-1  0  0)  ( 0  0 -1)  ( 0 -1  0)  (-1  1  0)  (-1  0  1)
  (-1  0  0)  (-1  1  0)  ( 0 -1  0)  ( 0  0 -1)  (-1  0  1)  (-1  1  0)
Note: your k-points are not as symmetric as your crystal!

1728 k-points: 12 x 12 x 12 Monkhorst-Pack grid
182 k-points in the irreducible part of the Brillouin zone
       k-points in crystal coordinates                weights
   0:     0.04166667    0.04166667   -0.04166667          6/1728
   1:     0.04166667    0.04166667    0.04166667          2/1728
   2:     0.12500000   -0.04166667   -0.04166667          6/1728
   3:     0.12500000    0.04166667   -0.12500000         12/1728
   4:     0.12500000    0.04166667   -0.04166667         12/1728
   5:     0.12500000    0.04166667    0.04166667          6/1728
   6:     0.12500000    0.12500000   -0.12500000          6/1728
   7:     0.12500000    0.12500000   -0.04166667          6/1728
   8:     0.12500000    0.12500000    0.04166667          6/1728
   9:     0.12500000    0.12500000    0.12500000          2/1728
          ...
 181:     0.45833333    0.45833333    0.45833333          2/1728

Wave functions: Plane wave expansion
  Cutoff energy: 450.000 eV
  Number of coefficients (min, max): 293, 314
  Pulay-stress correction: 0.000000 eV/Ang^3 (de/decut=0.000000)
  Using FFTW library
  ScaLapack parameters: grid=1x1, blocksize=None
  Wavefunction extrapolation:
    Improved wavefunction reuse through dual PAW basis 

Eigensolver
   Davidson(niter=2, smin=None, normalize=True) 

Densities:
  Coarse grid: 14*14*14 grid
  Fine grid: 28*28*28 grid
  Total Charge: 0.000000 

Density mixing:
  Method: separate
  Backend: pulay
  Linear mixing parameter: 0.05
  Mixing with 5 old densities
  Damping of long wave oscillations: 50 

Hamiltonian:
  XC and Coulomb potentials evaluated on a 28*28*28 grid
  Using the PBE Exchange-Correlation functional
 

XC parameters: PBE with 2 nearest neighbor stencil

Memory estimate:
  Process memory now: 152.70 MiB
  Calculator: 2.78 MiB
    Density: 1.10 MiB
      Arrays: 0.54 MiB
      Localized functions: 0.35 MiB
      Mixer: 0.21 MiB
    Hamiltonian: 0.36 MiB
      Arrays: 0.36 MiB
      XC: 0.00 MiB
      Poisson: 0.00 MiB
      vbar: 0.01 MiB
    Wavefunctions: 1.32 MiB
      Arrays psit_nG: 0.63 MiB
      Eigensolver: 0.10 MiB
      Projections: 0.04 MiB
      Projectors: 0.39 MiB
      PW-descriptor: 0.16 MiB

Total number of cores used: 16
Parallelization over k-points: 16

Number of atoms: 1
Number of atomic orbitals: 12
Number of bands in calculation: 12
Bands to converge: occupied states only
Number of valence electrons: 16

... initialized

Initializing position-dependent things.

Density initialized from atomic densities
Creating initial wave functions:
  12 bands from LCAO basis set

                
                
                
       Pt       
                
                
                
                

Positions:
   0 Pt     0.000000    0.000000    0.000000    ( 0.0000,  0.0000,  0.0000)

Unit cell:
           periodic     x           y           z      points  spacing
  1. axis:    yes    0.000000    1.912526    1.912526    14     0.1577
  2. axis:    yes    1.912526    0.000000    1.912526    14     0.1577
  3. axis:    yes    1.912526    1.912526    0.000000    14     0.1577

  Lengths:   2.704720   2.704720   2.704720
  Angles:   60.000000  60.000000  60.000000

Effective grid spacing dv^(1/3) = 0.1721

                     log10-error:    total        iterations:
           time      wfs    density  energy       fermi  poisson
iter:   1  21:52:49  +1.90   +inf    -6.673520    3             
iter:   2  21:52:49  -1.52  -1.47    -6.614250    4             
iter:   3  21:52:50  -1.37  -1.49    -6.367533    30            
iter:   4  21:52:50  -2.44  -1.81    -6.270316    32            
iter:   5  21:52:50  -2.54  -2.22    -6.269821    3             
iter:   6  21:52:51  -4.02  -2.52    -6.266616    3             
iter:   7  21:52:51  -4.29  -2.83    -6.265255    3             
iter:   8  21:52:51  -4.15  -3.13    -6.265601    3             
iter:   9  21:52:52  -5.90  -4.12    -6.265603    2             
iter:  10  21:52:52  -6.66  -4.33    -6.265600    2             
iter:  11  21:52:52  -6.39  -3.91    -6.265602    2             
iter:  12  21:52:53  -7.09  -4.48    -6.265603    2             
iter:  13  21:52:53  -8.37  -5.21    -6.265603    2             

Converged after 13 iterations.

Dipole moment: (-0.000000, -0.000000, -0.000000) |e|*Ang

Energy contributions relative to reference atoms: (reference = -500375.362767)

Kinetic:         +6.899214
Potential:       -6.865179
External:        +0.000000
XC:              -5.706708
Entropy (-ST):   -0.048947
Local:           -0.568457
--------------------------
Free energy:     -6.290076
Extrapolated:    -6.265603

Fermi level: 13.69456

Showing only first 2 kpts
 Kpt  Band  Eigenvalues  Occupancy
  0     6      9.57801    0.00694
  0     7     11.67919    0.00694
  0     8     11.89228    0.00694
  0     9     29.08176    0.00000

  1     6      9.47473    0.00231
  1     7     11.83325    0.00231
  1     8     11.83325    0.00231
  1     9     28.75799    0.00000


No gap
System changes: cell 

Initialize ...

Pt-setup:
  name: Platinum
  id: 5ed695806aff0c961dba1a84acd7f4b2
  Z: 78
  valence: 16
  core: 62
  charge: 0.0
  file: /apps/Common/software/GPAW-setups/0.9.20000/Pt.PBE.gz
  compensation charges: gauss, rc=0.41, lmax=2
  cutoffs: 2.26(filt), 2.26(core),
  valence states:
                energy  radius
    6s(1.00)    -5.628   1.307
    5p(6.00)   -56.051   1.371
    6p(0.00)    -0.845   1.371
    5d(9.00)    -6.153   1.307
    *s          21.583   1.307
    *d          21.058   1.307

  Using partial waves for Pt as LCAO basis

Reference energy: -500375.362767

Spin-paired calculation

Occupation numbers:
  Fermi-Dirac: width=0.1000 eV

Convergence criteria:
  Maximum total energy change: 0.0005 eV / electron
  Maximum integral of absolute density change: 0.0001 electrons
  Maximum integral of absolute eigenstate change: 4e-08 eV^2
  Maximum number of iterations: 333

Symmetries present (total): 48

  ( 1  0  0)  ( 1  0  0)  ( 1  0  0)  ( 1  0  0)  ( 1  0 -1)  ( 1  0 -1)
  ( 1  0 -1)  ( 1 -1  0)  ( 0  1  0)  ( 0  0  1)  ( 1  0  0)  ( 1 -1  0)
  ( 1 -1  0)  ( 1  0 -1)  ( 0  0  1)  ( 0  1  0)  ( 1 -1  0)  ( 1  0  0)

  ( 1  0 -1)  ( 1  0 -1)  ( 1 -1  0)  ( 1 -1  0)  ( 1 -1  0)  ( 1 -1  0)
  ( 0  1 -1)  ( 0  0 -1)  ( 1  0  0)  ( 1  0 -1)  ( 0 -1  1)  ( 0 -1  0)
  ( 0  0 -1)  ( 0  1 -1)  ( 1  0 -1)  ( 1  0  0)  ( 0 -1  0)  ( 0 -1  1)

  ( 0  1  0)  ( 0  1  0)  ( 0  1  0)  ( 0  1  0)  ( 0  1 -1)  ( 0  1 -1)
  ( 1  0  0)  ( 0  1 -1)  ( 0  0  1)  (-1  1  0)  ( 1  0 -1)  ( 0  1  0)
[...]

Kinetic:        -17.853007
Potential:      +14.272081
External:        +0.000000
XC:              -2.137721
Entropy (-ST):   -0.066528
Local:           -0.528783
--------------------------
Free energy:     -6.313958
Extrapolated:    -6.280694

Fermi level: 9.25906

Showing only first 2 kpts
 Kpt  Band  Eigenvalues  Occupancy
  0     6      6.44004    0.00694
  0     7      7.88120    0.00694
  0     8      8.01895    0.00694
  0     9     24.80086    0.00000

  1     6      6.36742    0.00231
  1     7      7.97843    0.00231
  1     8      7.97843    0.00231
  1     9     24.60069    0.00000


No gap
System changes: cell 

Initialize ...

Pt-setup:
  name: Platinum
  id: 5ed695806aff0c961dba1a84acd7f4b2
  Z: 78
  valence: 16
  core: 62
  charge: 0.0
  file: /apps/Common/software/GPAW-setups/0.9.20000/Pt.PBE.gz
  compensation charges: gauss, rc=0.41, lmax=2
  cutoffs: 2.26(filt), 2.26(core),
  valence states:
                energy  radius
    6s(1.00)    -5.628   1.307
    5p(6.00)   -56.051   1.371
    6p(0.00)    -0.845   1.371
    5d(9.00)    -6.153   1.307
    *s          21.583   1.307
    *d          21.058   1.307

  Using partial waves for Pt as LCAO basis

Reference energy: -500375.362767

Spin-paired calculation

Occupation numbers:
  Fermi-Dirac: width=0.1000 eV

Convergence criteria:
  Maximum total energy change: 0.0005 eV / electron
  Maximum integral of absolute density change: 0.0001 electrons
  Maximum integral of absolute eigenstate change: 4e-08 eV^2
  Maximum number of iterations: 333

Symmetries present (total): 48

  ( 1  0  0)  ( 1  0  0)  ( 1  0  0)  ( 1  0  0)  ( 1  0 -1)  ( 1  0 -1)
  ( 1  0 -1)  ( 1 -1  0)  ( 0  1  0)  ( 0  0  1)  ( 1  0  0)  ( 1 -1  0)
  ( 1 -1  0)  ( 1  0 -1)  ( 0  0  1)  ( 0  1  0)  ( 1 -1  0)  ( 1  0  0)

  ( 1  0 -1)  ( 1  0 -1)  ( 1 -1  0)  ( 1 -1  0)  ( 1 -1  0)  ( 1 -1  0)
  ( 0  1 -1)  ( 0  0 -1)  ( 1  0  0)  ( 1  0 -1)  ( 0 -1  1)  ( 0 -1  0)
  ( 0  0 -1)  ( 0  1 -1)  ( 1  0 -1)  ( 1  0  0)  ( 0 -1  0)  ( 0 -1  1)

  ( 0  1  0)  ( 0  1  0)  ( 0  1  0)  ( 0  1  0)  ( 0  1 -1)  ( 0  1 -1)
  ( 1  0  0)  ( 0  1 -1)  ( 0  0  1)  (-1  1  0)  ( 1  0 -1)  ( 0  1  0)
  ( 0  0  1)  (-1  1  0)  ( 1  0  0)  ( 0  1 -1)  ( 0  0 -1)  (-1  1  0)

  ( 0  1 -1)  ( 0  1 -1)  ( 0  0  1)  ( 0  0  1)  ( 0  0  1)  ( 0  0  1)
  ( 0  0 -1)  (-1  1  0)  ( 1  0  0)  ( 0  1  0)  ( 0 -1  1)  (-1  0  1)
  ( 1  0 -1)  ( 0  1  0)  ( 0  1  0)  ( 1  0  0)  (-1  0  1)  ( 0 -1  1)

  ( 0  0 -1)  ( 0  0 -1)  ( 0  0 -1)  ( 0  0 -1)  ( 0 -1  1)  ( 0 -1  1)
  ( 1  0 -1)  ( 0  1 -1)  ( 0 -1  0)  (-1  0  0)  ( 1 -1  0)  ( 0  0  1)
  ( 0  1 -1)  ( 1  0 -1)  (-1  0  0)  ( 0 -1  0)  ( 0 -1  0)  (-1  0  1)

  ( 0 -1  1)  ( 0 -1  1)  ( 0 -1  0)  ( 0 -1  0)  ( 0 -1  0)  ( 0 -1  0)
  ( 0 -1  0)  (-1  0  1)  ( 1 -1  0)  ( 0  0 -1)  ( 0 -1  1)  (-1  0  0)
  ( 1 -1  0)  ( 0  0  1)  ( 0 -1  1)  (-1  0  0)  ( 1 -1  0)  ( 0  0 -1)

  (-1  1  0)  (-1  1  0)  (-1  1  0)  (-1  1  0)  (-1  0  1)  (-1  0  1)
  ( 0  1  0)  ( 0  1 -1)  (-1  0  1)  (-1  0  0)  ( 0  0  1)  ( 0 -1  1)
  ( 0  1 -1)  ( 0  1  0)  (-1  0  0)  (-1  0  1)  ( 0 -1  1)  ( 0  0  1)

  (-1  0  1)  (-1  0  1)  (-1  0  0)  (-1  0  0)  (-1  0  0)  (-1  0  0)
  (-1  1  0)  (-1  0  0)  ( 0  0 -1)  ( 0 -1  0)  (-1  1  0)  (-1  0  1)
  (-1  0  0)  (-1  1  0)  ( 0 -1  0)  ( 0  0 -1)  (-1  0  1)  (-1  1  0)
Note: your k-points are not as symmetric as your crystal!

1728 k-points: 12 x 12 x 12 Monkhorst-Pack grid
182 k-points in the irreducible part of the Brillouin zone
       k-points in crystal coordinates                weights
   0:     0.04166667    0.04166667   -0.04166667          6/1728
   1:     0.04166667    0.04166667    0.04166667          2/1728
   2:     0.12500000   -0.04166667   -0.04166667          6/1728
   3:     0.12500000    0.04166667   -0.12500000         12/1728
   4:     0.12500000    0.04166667   -0.04166667         12/1728
   5:     0.12500000    0.04166667    0.04166667          6/1728
   6:     0.12500000    0.12500000   -0.12500000          6/1728
   7:     0.12500000    0.12500000   -0.04166667          6/1728
   8:     0.12500000    0.12500000    0.04166667          6/1728
   9:     0.12500000    0.12500000    0.12500000          2/1728
          ...
 181:     0.45833333    0.45833333    0.45833333          2/1728

Wave functions: Plane wave expansion
  Cutoff energy: 450.000 eV
  Number of coefficients (min, max): 369, 391
  Pulay-stress correction: 0.000000 eV/Ang^3 (de/decut=0.000000)
  Using FFTW library
  ScaLapack parameters: grid=1x1, blocksize=None
  Wavefunction extrapolation:
    Improved wavefunction reuse through dual PAW basis 

Eigensolver
   Davidson(niter=2, smin=None, normalize=True) 

Densities:
  Coarse grid: 15*15*15 grid
  Fine grid: 30*30*30 grid
  Total Charge: 0.000000 

Density mixing:
  Method: separate
  Backend: pulay
  Linear mixing parameter: 0.05
  Mixing with 5 old densities
  Damping of long wave oscillations: 50 

Hamiltonian:
  XC and Coulomb potentials evaluated on a 30*30*30 grid
  Using the PBE Exchange-Correlation functional
 

XC parameters: PBE with 2 nearest neighbor stencil

Memory estimate:
  Process memory now: 159.73 MiB
  Calculator: 3.43 MiB
    Density: 1.37 MiB
      Arrays: 0.67 MiB
      Localized functions: 0.44 MiB
      Mixer: 0.26 MiB
    Hamiltonian: 0.45 MiB
      Arrays: 0.44 MiB
      XC: 0.00 MiB
      Poisson: 0.00 MiB
      vbar: 0.01 MiB
    Wavefunctions: 1.61 MiB
      Arrays psit_nG: 0.79 MiB
      Eigensolver: 0.12 MiB
      Projections: 0.04 MiB
      Projectors: 0.47 MiB
      PW-descriptor: 0.19 MiB

Total number of cores used: 16
Parallelization over k-points: 16

Number of atoms: 1
Number of atomic orbitals: 12
Number of bands in calculation: 12
Bands to converge: occupied states only
Number of valence electrons: 16

... initialized

Initializing position-dependent things.

Density initialized from atomic densities
Creating initial wave functions:
  12 bands from LCAO basis set

                
                
                
       Pt       
                
                
                
                

Positions:
   0 Pt     0.000000    0.000000    0.000000    ( 0.0000,  0.0000,  0.0000)

Unit cell:
           periodic     x           y           z      points  spacing
  1. axis:    yes    0.000000    2.069719    2.069719    15     0.1593
  2. axis:    yes    2.069719    0.000000    2.069719    15     0.1593
  3. axis:    yes    2.069719    2.069719    0.000000    15     0.1593

  Lengths:   2.927025   2.927025   2.927025
  Angles:   60.000000  60.000000  60.000000

Effective grid spacing dv^(1/3) = 0.1738

                     log10-error:    total        iterations:
           time      wfs    density  energy       fermi  poisson
iter:   1  21:58:26  +1.77   +inf    -6.659462    3             
iter:   2  21:58:26  -1.82  -1.43    -6.585431    4             
iter:   3  21:58:27  -1.34  -1.46    -6.333464    32            
iter:   4  21:58:27  -2.70  -1.86    -6.266416    27            
iter:   5  21:58:27  -2.58  -2.13    -6.269636    3             
iter:   6  21:58:28  -3.99  -2.60    -6.267256    3             
iter:   7  21:58:28  -4.68  -2.99    -6.266658    3             
iter:   8  21:58:29  -4.35  -3.19    -6.266824    3             
iter:   9  21:58:29  -5.84  -3.90    -6.266829    3             
iter:  10  21:58:29  -6.86  -4.25    -6.266825    2             
iter:  11  21:58:30  -6.22  -4.07    -6.266827    2             
iter:  12  21:58:30  -7.78  -4.47    -6.266826    2             

Converged after 12 iterations.

Dipole moment: (-0.000000, 0.000000, -0.000000) |e|*Ang

Energy contributions relative to reference atoms: (reference = -500375.362767)

Kinetic:        -18.217951
Potential:      +14.586109
External:        +0.000000
XC:              -2.072465
Entropy (-ST):   -0.067000
Local:           -0.529019
--------------------------
Free energy:     -6.300326
Extrapolated:    -6.266826

Fermi level: 9.16096

Showing only first 2 kpts
 Kpt  Band  Eigenvalues  Occupancy
  0     6      6.36900    0.00694
  0     7      7.79618    0.00694
  0     8      7.93245    0.00694
  0     9     24.70022    0.00000

  1     6      6.29684    0.00231
  1     7      7.89220    0.00231
  1     8      7.89220    0.00231
  1     9     24.50241    0.00000


No gap
System changes: cell 

Initialize ...

Pt-setup:
  name: Platinum
  id: 5ed695806aff0c961dba1a84acd7f4b2
  Z: 78
  valence: 16
  core: 62
  charge: 0.0
  file: /apps/Common/software/GPAW-setups/0.9.20000/Pt.PBE.gz
  compensation charges: gauss, rc=0.41, lmax=2
  cutoffs: 2.26(filt), 2.26(core),
  valence states:
                energy  radius
    6s(1.00)    -5.628   1.307
    5p(6.00)   -56.051   1.371
    6p(0.00)    -0.845   1.371
    5d(9.00)    -6.153   1.307
    *s          21.583   1.307
    *d          21.058   1.307

  Using partial waves for Pt as LCAO basis

Reference energy: -500375.362767

Spin-paired calculation

Occupation numbers:
  Fermi-Dirac: width=0.1000 eV

Convergence criteria:
  Maximum total energy change: 0.0005 eV / electron
  Maximum integral of absolute density change: 0.0001 electrons
  Maximum integral of absolute eigenstate change: 4e-08 eV^2
  Maximum number of iterations: 333

Symmetries present (total): 48

  ( 1  0  0)  ( 1  0  0)  ( 1  0  0)  ( 1  0  0)  ( 1  0 -1)  ( 1  0 -1)
  ( 1  0 -1)  ( 1 -1  0)  ( 0  1  0)  ( 0  0  1)  ( 1  0  0)  ( 1 -1  0)
  ( 1 -1  0)  ( 1  0 -1)  ( 0  0  1)  ( 0  1  0)  ( 1 -1  0)  ( 1  0  0)

  ( 1  0 -1)  ( 1  0 -1)  ( 1 -1  0)  ( 1 -1  0)  ( 1 -1  0)  ( 1 -1  0)
  ( 0  1 -1)  ( 0  0 -1)  ( 1  0  0)  ( 1  0 -1)  ( 0 -1  1)  ( 0 -1  0)
  ( 0  0 -1)  ( 0  1 -1)  ( 1  0 -1)  ( 1  0  0)  ( 0 -1  0)  ( 0 -1  1)

  ( 0  1  0)  ( 0  1  0)  ( 0  1  0)  ( 0  1  0)  ( 0  1 -1)  ( 0  1 -1)
  ( 1  0  0)  ( 0  1 -1)  ( 0  0  1)  (-1  1  0)  ( 1  0 -1)  ( 0  1  0)
  ( 0  0  1)  (-1  1  0)  ( 1  0  0)  ( 0  1 -1)  ( 0  0 -1)  (-1  1  0)

  ( 0  1 -1)  ( 0  1 -1)  ( 0  0  1)  ( 0  0  1)  ( 0  0  1)  ( 0  0  1)
  ( 0  0 -1)  (-1  1  0)  ( 1  0  0)  ( 0  1  0)  ( 0 -1  1)  (-1  0  1)
  ( 1  0 -1)  ( 0  1  0)  ( 0  1  0)  ( 1  0  0)  (-1  0  1)  ( 0 -1  1)

  ( 0  0 -1)  ( 0  0 -1)  ( 0  0 -1)  ( 0  0 -1)  ( 0 -1  1)  ( 0 -1  1)
  ( 1  0 -1)  ( 0  1 -1)  ( 0 -1  0)  (-1  0  0)  ( 1 -1  0)  ( 0  0  1)
  ( 0  1 -1)  ( 1  0 -1)  (-1  0  0)  ( 0 -1  0)  ( 0 -1  0)  (-1  0  1)

  ( 0 -1  1)  ( 0 -1  1)  ( 0 -1  0)  ( 0 -1  0)  ( 0 -1  0)  ( 0 -1  0)
  ( 0 -1  0)  (-1  0  1)  ( 1 -1  0)  ( 0  0 -1)  ( 0 -1  1)  (-1  0  0)
  ( 1 -1  0)  ( 0  0  1)  ( 0 -1  1)  (-1  0  0)  ( 1 -1  0)  ( 0  0 -1)

  (-1  1  0)  (-1  1  0)  (-1  1  0)  (-1  1  0)  (-1  0  1)  (-1  0  1)
  ( 0  1  0)  ( 0  1 -1)  (-1  0  1)  (-1  0  0)  ( 0  0  1)  ( 0 -1  1)
  ( 0  1 -1)  ( 0  1  0)  (-1  0  0)  (-1  0  1)  ( 0 -1  1)  ( 0  0  1)

  (-1  0  1)  (-1  0  1)  (-1  0  0)  (-1  0  0)  (-1  0  0)  (-1  0  0)
  (-1  1  0)  (-1  0  0)  ( 0  0 -1)  ( 0 -1  0)  (-1  1  0)  (-1  0  1)
  (-1  0  0)  (-1  1  0)  ( 0 -1  0)  ( 0  0 -1)  (-1  0  1)  (-1  1  0)
Note: your k-points are not as symmetric as your crystal!

1728 k-points: 12 x 12 x 12 Monkhorst-Pack grid
182 k-points in the irreducible part of the Brillouin zone
       k-points in crystal coordinates                weights
   0:     0.04166667    0.04166667   -0.04166667          6/1728
   1:     0.04166667    0.04166667    0.04166667          2/1728
   2:     0.12500000   -0.04166667   -0.04166667          6/1728
   3:     0.12500000    0.04166667   -0.12500000         12/1728
   4:     0.12500000    0.04166667   -0.04166667         12/1728
   5:     0.12500000    0.04166667    0.04166667          6/1728
   6:     0.12500000    0.12500000   -0.12500000          6/1728
   7:     0.12500000    0.12500000   -0.04166667          6/1728
   8:     0.12500000    0.12500000    0.04166667          6/1728
   9:     0.12500000    0.12500000    0.12500000          2/1728
          ...
 181:     0.45833333    0.45833333    0.45833333          2/1728

Wave functions: Plane wave expansion
  Cutoff energy: 450.000 eV
  Number of coefficients (min, max): 370, 393
  Pulay-stress correction: 0.000000 eV/Ang^3 (de/decut=0.000000)
  Using FFTW library
  ScaLapack parameters: grid=1x1, blocksize=None
  Wavefunction extrapolation:
    Improved wavefunction reuse through dual PAW basis 

Eigensolver
   Davidson(niter=2, smin=None, normalize=True) 

Densities:
  Coarse grid: 15*15*15 grid
  Fine grid: 30*30*30 grid
  Total Charge: 0.000000 

Density mixing:
  Method: separate
  Backend: pulay
  Linear mixing parameter: 0.05
  Mixing with 5 old densities
  Damping of long wave oscillations: 50 

Hamiltonian:
  XC and Coulomb potentials evaluated on a 30*30*30 grid
  Using the PBE Exchange-Correlation functional
 

XC parameters: PBE with 2 nearest neighbor stencil

Memory estimate:
  Process memory now: 159.73 MiB
  Calculator: 3.43 MiB
    Density: 1.37 MiB
      Arrays: 0.67 MiB
      Localized functions: 0.44 MiB
      Mixer: 0.26 MiB
    Hamiltonian: 0.45 MiB
      Arrays: 0.44 MiB
      XC: 0.00 MiB
      Poisson: 0.00 MiB
      vbar: 0.01 MiB
    Wavefunctions: 1.62 MiB
      Arrays psit_nG: 0.79 MiB
      Eigensolver: 0.12 MiB
      Projections: 0.04 MiB
      Projectors: 0.47 MiB
      PW-descriptor: 0.19 MiB

Total number of cores used: 16
Parallelization over k-points: 16

Number of atoms: 1
Number of atomic orbitals: 12
Number of bands in calculation: 12
Bands to converge: occupied states only
Number of valence electrons: 16

... initialized

Initializing position-dependent things.

Density initialized from atomic densities
Creating initial wave functions:
  12 bands from LCAO basis set

                
                
                
       Pt       
                
                
                
                

Positions:
   0 Pt     0.000000    0.000000    0.000000    ( 0.0000,  0.0000,  0.0000)

Unit cell:
           periodic     x           y           z      points  spacing
  1. axis:    yes    0.000000    2.073750    2.073750    15     0.1596
  2. axis:    yes    2.073750    0.000000    2.073750    15     0.1596
  3. axis:    yes    2.073750    2.073750    0.000000    15     0.1596

  Lengths:   2.932725   2.932725   2.932725
  Angles:   60.000000  60.000000  60.000000

Effective grid spacing dv^(1/3) = 0.1742

                     log10-error:    total        iterations:
           time      wfs    density  energy       fermi  poisson
iter:   1  21:58:34  +1.77   +inf    -6.643826    3             
iter:   2  21:58:34  -1.84  -1.43    -6.569606    4             
iter:   3  21:58:35  -1.34  -1.46    -6.317673    32            
iter:   4  21:58:35  -2.71  -1.87    -6.251973    31            
iter:   5  21:58:36  -2.58  -2.13    -6.255579    3             
iter:   6  21:58:36  -3.95  -2.58    -6.252926    3             
iter:   7  21:58:37  -4.65  -2.99    -6.252334    3             
iter:   8  21:58:37  -4.36  -3.19    -6.252504    3             
iter:   9  21:58:37  -5.80  -3.87    -6.252509    3             
iter:  10  21:58:38  -6.88  -4.26    -6.252504    2             
iter:  11  21:58:38  -6.19  -4.07    -6.252507    2             
iter:  12  21:58:39  -7.66  -4.42    -6.252506    2             

Converged after 12 iterations.

Dipole moment: (-0.000000, -0.000000, 0.000000) |e|*Ang

Energy contributions relative to reference atoms: (reference = -500375.362767)

Kinetic:        -18.571304
Potential:      +14.890334
External:        +0.000000
XC:              -2.008478
Entropy (-ST):   -0.067468
Local:           -0.529324
--------------------------
Free energy:     -6.286240
Extrapolated:    -6.252506

Fermi level: 9.06370

Showing only first 2 kpts
 Kpt  Band  Eigenvalues  Occupancy
  0     6      6.29848    0.00694
  0     7      7.71179    0.00694
  0     8      7.84644    0.00694
  0     9     24.60013    0.00000

  1     6      6.22697    0.00231
  1     7      7.80670    0.00231
  1     8      7.80670    0.00231
  1     9     24.40446    0.00000


No gap
Timing:                              incl.     excl.
-----------------------------------------------------------
Hamiltonian:                         9.083     0.027   0.0% |
 Atomic:                             7.974     7.973   1.8% ||
  XC Correction:                     0.000     0.000   0.0% |
 Calculate atomic Hamiltonians:      0.044     0.044   0.0% |
 Communicate:                        0.008     0.008   0.0% |
 Initialize Hamiltonian:             0.007     0.007   0.0% |
 Poisson:                            0.011     0.011   0.0% |
 XC 3D grid:                         1.012     1.012   0.2% |
LCAO initialization:               107.411     6.299   1.4% ||
 LCAO eigensolver:                  27.403     0.043   0.0% |
  Calculate projections:             0.021     0.021   0.0% |
  DenseAtomicCorrection:             0.077     0.077   0.0% |
  Distribute overlap matrix:         0.022     0.022   0.0% |
  Orbital Layouts:                   0.104     0.104   0.0% |
  Potential matrix:                 25.084    25.084   5.7% |-|
  Sum over cells:                    2.053     2.053   0.5% |
 LCAO to grid:                      63.153    63.153  14.2% |-----|
 Set positions (LCAO WFS):          10.556     1.605   0.4% |
  Basic WFS set positions:           0.161     0.161   0.0% |
  Basis functions set positions:     0.002     0.002   0.0% |
  P tci:                             2.034     2.034   0.5% |
  ST tci:                            5.060     5.060   1.1% |
  mktci:                             1.693     1.693   0.4% |
PWDescriptor:                        0.173     0.173   0.0% |
SCF-cycle:                         250.266    29.479   6.6% |--|
 Davidson:                         103.821    25.007   5.6% |-|
  Apply H:                          11.497     9.965   2.2% ||
   HMM T:                            1.532     1.532   0.3% |
  Subspace diag:                    18.348     0.956   0.2% |
   calc_h_matrix:                   14.047     2.514   0.6% |
    Apply H:                        11.533     9.968   2.2% ||
     HMM T:                          1.565     1.565   0.4% |
   diagonalize:                      2.111     2.111   0.5% |
   rotate_psi:                       1.234     1.234   0.3% |
  calc. matrices:                   39.697    16.750   3.8% |-|
   Apply H:                         22.946    19.869   4.5% |-|
    HMM T:                           3.078     3.078   0.7% |
  diagonalize:                       7.382     7.382   1.7% ||
  rotate_psi:                        1.890     1.890   0.4% |
 Density:                           16.351     0.020   0.0% |
  Atomic density matrices:           1.265     1.265   0.3% |
  Mix:                               1.528     1.528   0.3% |
  Multipole moments:                 0.103     0.103   0.0% |
  Pseudo density:                   13.435     4.440   1.0% |
   Symmetrize density:               8.996     8.996   2.0% ||
 Hamiltonian:                      100.036     0.308   0.1% |
  Atomic:                           87.558    87.554  19.7% |-------|
   XC Correction:                    0.004     0.004   0.0% |
  Calculate atomic Hamiltonians:     0.530     0.530   0.1% |
  Communicate:                       0.090     0.090   0.0% |
  Poisson:                           0.134     0.134   0.0% |
  XC 3D grid:                       11.416    11.416   2.6% ||
 Orthonormalize:                     0.578     0.078   0.0% |
  calc_s_matrix:                     0.143     0.143   0.0% |
  inverse-cholesky:                  0.163     0.163   0.0% |
  projections:                       0.155     0.155   0.0% |
  rotate_psi_s:                      0.040     0.040   0.0% |
Set symmetry:                       11.362    11.362   2.6% ||
Other:                              65.332    65.332  14.7% |-----|
-----------------------------------------------------------
Total:                                       443.628 100.0%

Memory usage: 159.73 MiB
Date: Fri Feb 25 21:58:48 2022
